unknown system                          
   1.00000000000000     
     1.793622   -3.106645    0.000000
     1.793622    3.106645   -0.000000
     0.000000    0.000000    5.777233
   In   N 
     2     2
Direct
  0.333333  0.666667  0.997691
  0.666667  0.333333  0.497691
  0.333333  0.666667  0.377309
  0.666667  0.333333  0.877309
 
   48   48   72
 0.24754759636E+01 0.25014361708E+01 0.25803656308E+01 0.27152688172E+01 0.29107333214E+01
 0.31724334619E+01 0.35066439930E+01 0.39198715207E+01 0.44186367294E+01 0.50093328031E+01
 0.56979682578E+01 0.64866919775E+01 0.73679329737E+01 0.83267605968E+01 0.93409719647E+01
 0.10381908382E+02 0.11416560321E+02 0.12410503322E+02 0.13330996610E+02 0.14149560340E+02
 0.14843539256E+02 0.15396486711E+02 0.15797557552E+02 0.16040333978E+02 0.16121580978E+02
 0.16040332204E+02 0.15797556937E+02 0.15396488974E+02 0.14843542842E+02 0.14149562800E+02
 0.13330997113E+02 0.12410502229E+02 0.11416557846E+02 0.10381904438E+02 0.93409665555E+01
 0.83267543108E+01 0.73679278074E+01 0.64866908088E+01 0.56979718739E+01 0.50093379806E+01
 0.44186391365E+01 0.39198703179E+01 0.35066418884E+01 0.31724326914E+01 0.29107336674E+01
 0.27152693988E+01 0.25803663183E+01 0.25014367939E+01 0.25014367078E+01 0.25014360019E+01
 0.25535849548E+01 0.26604568768E+01 0.28266582857E+01 0.30579830216E+01 0.33606026730E+01
 0.37405912727E+01 0.42039096189E+01 0.47567349324E+01 0.54058014343E+01 0.61583173492E+01
 0.70202564255E+01 0.79888851588E+01 0.90524693428E+01 0.10191076819E+02 0.11376559911E+02
 0.12573861763E+02 0.13743306492E+02 0.14843351205E+02 0.15833300586E+02 0.16675660472E+02
 0.17338039610E+02 0.17794663599E+02 0.18027585515E+02 0.18027586152E+02 0.17794666480E+02
 0.17338045960E+02 0.16675669366E+02 0.15833309233E+02 0.14843356953E+02 0.13743308106E+02
 0.12573859961E+02 0.11376557146E+02 0.10191075080E+02 0.90524677114E+01 0.79888812872E+01
 0.70202509416E+01 0.61583143807E+01 0.54058034856E+01 0.47567394657E+01 0.42039123935E+01
 0.37405911857E+01 0.33606015298E+01 0.30579823127E+01 0.28266583007E+01 0.26604577117E+01
 0.25535863098E+01 0.25803665590E+01 0.25541894720E+01 0.25803656222E+01 0.26604570151E+01
 0.27987329314E+01 0.30011263849E+01 0.32740592969E+01 0.36236689517E+01 0.40557489947E+01
 0.45763486830E+01 0.51926051593E+01 0.59131785330E+01 0.67477319095E+01 0.77051898374E+01
 0.87880225055E+01 0.99861959263E+01 0.11279093334E+02 0.12635515291E+02 0.14014620864E+02
 0.15367966284E+02 0.16642266312E+02 0.17782611745E+02 0.18736033799E+02 0.19455354976E+02
 0.19903123998E+02 0.20055169415E+02 0.19903127601E+02 0.19455361480E+02 0.18736042413E+02
 0.17782622108E+02 0.16642277884E+02 0.15367977139E+02 0.14014628224E+02 0.12635518169E+02
 0.11279093723E+02 0.99861961145E+01 0.87880220769E+01 0.77051869960E+01 0.67477272236E+01
 0.59131752233E+01 0.51926053594E+01 0.45763511259E+01 0.40557509944E+01 0.36236693286E+01
 0.32740587112E+01 0.30011259407E+01 0.27987332614E+01 0.26604580389E+01 0.27152695655E+01
 0.26612426951E+01 0.26612426909E+01 0.27152692508E+01 0.28266582125E+01 0.30011259604E+01
 0.32453596167E+01 0.35658820681E+01 0.39687559172E+01 0.44602303297E+01 0.50479038045E+01
 0.57416242490E+01 0.65533576668E+01 0.74956359814E+01 0.85787365537E+01 0.98068828639E+01
 0.11170878513E+02 0.12646278307E+02 0.14195615785E+02 0.15769276911E+02 0.17307392441E+02
 0.18742737473E+02 0.20004766285E+02 0.21024931932E+02 0.21743098652E+02 0.22114261779E+02
 0.22114261955E+02 0.21743098312E+02 0.21024930674E+02 0.20004766867E+02 0.18742743881E+02
 0.17307405358E+02 0.15769292440E+02 0.14195628633E+02 0.12646285585E+02 0.11170881013E+02
 0.98068834888E+01 0.85787372968E+01 0.74956361787E+01 0.65533557336E+01 0.57416208097E+01
 0.50479015573E+01 0.44602305753E+01 0.39687570525E+01 0.35658822768E+01 0.32453592580E+01
 0.30011261873E+01 0.28266588746E+01 0.29107336674E+01 0.28256943462E+01 0.27979571341E+01
 0.28256955216E+01 0.29107336804E+01 0.30579821317E+01 0.32740582267E+01 0.35658816597E+01
 0.39400508434E+01 0.44033495083E+01 0.49640581988E+01 0.56332150881E+01 0.64248670572E+01
 0.73547355643E+01 0.84373774791E+01 0.96824721571E+01 0.11091034674E+02 0.12651821025E+02
 0.14335917406E+02 0.16097336815E+02 0.17875451670E+02 0.19596562985E+02 0.21177068332E+02
 0.22528953740E+02 0.23567865817E+02 0.24223003357E+02 0.24446951362E+02 0.24222998789E+02
 0.23567855578E+02 0.22528941108E+02 0.21177060547E+02 0.19596564115E+02 0.17875459967E+02
 0.16097348808E+02 0.14335929999E+02 0.12651830317E+02 0.11091038334E+02 0.96824730486E+01
 0.84373800306E+01 0.73547389172E+01 0.64248669050E+01 0.56332115067E+01 0.49640557835E+01
 0.44033499877E+01 0.39400514961E+01 0.35658812053E+01 0.32740584704E+01 0.30579833037E+01
 0.31724340940E+01 0.30521505117E+01 0.29937691898E+01 0.29937712350E+01 0.30521529544E+01
 0.31724329467E+01 0.33606012625E+01 0.36236685351E+01 0.39687559375E+01 0.44033488457E+01
 0.49365928771E+01 0.55807938580E+01 0.63520173061E+01 0.72690143487E+01 0.83504331697E+01
 0.96109806262E+01 0.11057475797E+02 0.12685480409E+02 0.14476653501E+02 0.16396514709E+02
 0.18391079301E+02 0.20386307134E+02 0.22291132503E+02 0.24001676666E+02 0.25409601846E+02
 0.26414521878E+02 0.26938397080E+02 0.26938395266E+02 0.26414514118E+02 0.25409587321E+02
 0.24001661582E+02 0.22291122739E+02 0.20386301783E+02 0.18391077105E+02 0.16396518905E+02
 0.14476663848E+02 0.12685488779E+02 0.11057477110E+02 0.96109804350E+01 0.83504372498E+01
 0.72690188438E+01 0.63520168532E+01 0.55807914784E+01 0.49365935392E+01 0.44033504856E+01
 0.39687549898E+01 0.36236675126E+01 0.33606030186E+01 0.35066457777E+01 0.33465480252E+01
 0.32537160141E+01 0.32233656643E+01 0.32537206645E+01 0.33465491509E+01 0.35066426941E+01
 0.37405915214E+01 0.40557507012E+01 0.44602299537E+01 0.49640557351E+01 0.55807928834E+01
 0.63284476980E+01 0.72286910834E+01 0.83041960578E+01 0.95747323306E+01 0.11053100323E+02
 0.12741752969E+02 0.14630216985E+02 0.16692715717E+02 0.18885276545E+02 0.21142335814E+02
 0.23374141654E+02 0.25467061753E+02 0.27291124624E+02 0.28714370785E+02 0.29621487527E+02
 0.29933277642E+02 0.29621488000E+02 0.28714365872E+02 0.27291115375E+02 0.25467054694E+02
 0.23374135530E+02 0.21142324694E+02 0.18885264845E+02 0.16692714130E+02 0.14630224085E+02
 0.12741756923E+02 0.11053098497E+02 0.95747329974E+01 0.83042008945E+01 0.72286926894E+01
 0.63284451144E+01 0.55807932944E+01 0.49640596727E+01 0.44602303286E+01 0.40557473460E+01
 0.37405915130E+01 0.39198742624E+01 0.37158001268E+01 0.35845661525E+01 0.35205550849E+01
 0.35205589050E+01 0.35845704918E+01 0.37157976051E+01 0.39198713782E+01 0.42039127012E+01
 0.45763507007E+01 0.50479013519E+01 0.56332124318E+01 0.63520185223E+01 0.72286933532E+01
 0.82898021840E+01 0.95602108385E+01 0.11058934315E+02 0.12795784981E+02 0.14769013588E+02
 0.16963068297E+02 0.19345137999E+02 0.21859857635E+02 0.24423333366E+02 0.26919637629E+02
 0.29203834955E+02 0.31114424755E+02 0.32494880222E+02 0.33220007866E+02 0.33220012266E+02
 0.32494886516E+02 0.31114425573E+02 0.29203835241E+02 0.26919640715E+02 0.24423329613E+02
 0.21859841746E+02 0.19345122927E+02 0.16963066596E+02 0.14769018699E+02 0.12795785571E+02
 0.11058933017E+02 0.95602138179E+01 0.82898042824E+01 0.72286891581E+01 0.63520151380E+01
 0.56332163561E+01 0.50479053352E+01 0.45763475947E+01 0.42039091895E+01 0.44186391365E+01
 0.41672728122E+01 0.39943258271E+01 0.38934256906E+01 0.38603069736E+01 0.38934319951E+01
 0.39943265593E+01 0.41672674096E+01 0.44186388578E+01 0.47567387133E+01 0.51926045766E+01
 0.57416205478E+01 0.64248672465E+01 0.72690190074E+01 0.83041998552E+01 0.95602115759E+01
 0.11062351071E+02 0.12828094363E+02 0.14865038120E+02 0.17169088505E+02 0.19720954234E+02
 0.22479466226E+02 0.25372297189E+02 0.28287460104E+02 0.31070961238E+02 0.33535638964E+02
 0.35483008849E+02 0.36734906397E+02 0.37167086574E+02 0.36734918226E+02 0.35483018630E+02
 0.33535642998E+02 0.31070967608E+02 0.28287466854E+02 0.25372292668E+02 0.22479452278E+02
 0.19720946183E+02 0.17169090479E+02 0.14865039814E+02 0.12828092678E+02 0.11062353093E+02
 0.95602158658E+01 0.83041970053E+01 0.72690114487E+01 0.64248669050E+01 0.57416266354E+01
 0.51926051187E+01 0.47567335594E+01 0.50093337459E+01 0.47081364070E+01 0.44913079440E+01
 0.43511670805E+01 0.42824808023E+01 0.42824853010E+01 0.43511719761E+01 0.44913041715E+01
 0.47081317073E+01 0.50093368017E+01 0.54058026842E+01 0.59131745883E+01 0.65533552412E+01
 0.73547388908E+01 0.83504376432E+01 0.95747335479E+01 0.11058934240E+02 0.12828095606E+02
 0.14899287830E+02 0.17280440053E+02 0.19967330987E+02 0.22936285822E+02 0.26132191997E+02
 0.29454915057E+02 0.32750382836E+02 0.35813502972E+02 0.38407441819E+02 0.40298123646E+02
 0.41296429069E+02 0.41296437335E+02 0.40298138461E+02 0.38407450449E+02 0.35813509145E+02
 0.32750393555E+02 0.29454923702E+02 0.26132190753E+02 0.22936280933E+02 0.19967330408E+02
 0.17280439568E+02 0.14899283337E+02 0.12828094436E+02 0.11058940369E+02 0.95747368187E+01
 0.83504316125E+01 0.73547337777E+01 0.65533593083E+01 0.59131790446E+01 0.54057993370E+01
 0.56979675098E+01 0.53444257190E+01 0.50823133032E+01 0.49015601819E+01 0.47956625063E+01
 0.47607969039E+01 0.47956672167E+01 0.49015606041E+01 0.50823090740E+01 0.53444253570E+01
 0.56979711560E+01 0.61583141344E+01 0.67477275497E+01 0.74956365947E+01 0.84373803359E+01
 0.96109811782E+01 0.11053100248E+02 0.12795788005E+02 0.14865041987E+02 0.17280440921E+02
 0.20053145167E+02 0.23178894371E+02 0.26624370399E+02 0.30309141669E+02 0.34089716805E+02
 0.37754660293E+02 0.41038253942E+02 0.43654479271E+02 0.45345240637E+02 0.45930393726E+02
 0.45345254041E+02 0.43654493139E+02 0.41038263725E+02 0.37754673050E+02 0.34089732914E+02
 0.30309151778E+02 0.26624371986E+02 0.23178894271E+02 0.20053144820E+02 0.17280435746E+02
 0.14865035450E+02 0.12795789103E+02 0.11053106751E+02 0.96109822511E+01 0.84373756665E+01
 0.74956359320E+01 0.67477318285E+01 0.61583147079E+01 0.64866894285E+01 0.60753466973E+01
 0.57653875752E+01 0.55429203743E+01 0.53990705240E+01 0.53284540564E+01 0.53284552602E+01
 0.53990715988E+01 0.55429190682E+01 0.57653867900E+01 0.60753485267E+01 0.64866906399E+01
 0.70202516993E+01 0.77051883457E+01 0.85787376925E+01 0.96824724277E+01 0.11057477026E+02
 0.12741757640E+02 0.14769018401E+02 0.17169088399E+02 0.19967328555E+02 0.23178894034E+02
 0.26794834286E+02 0.30760861788E+02 0.34954815789E+02 0.39172903644E+02 0.43135037805E+02
 0.46514566323E+02 0.48988815996E+02 0.50298284054E+02 0.50298289798E+02 0.48988827960E+02
 0.46514577569E+02 0.43135049535E+02 0.39172918218E+02 0.34954828223E+02 0.30760867036E+02
 0.26794835689E+02 0.23178896065E+02 0.19967328380E+02 0.17169083107E+02 0.14769013374E+02
 0.12741758716E+02 0.11057480720E+02 0.96824725731E+01 0.85787357498E+01 0.77051887897E+01
 0.70202530625E+01 0.73679278074E+01 0.68901308714E+01 0.65283658843E+01 0.62632748573E+01
 0.60819286514E+01 0.59761666824E+01 0.59414104385E+01 0.59761660269E+01 0.60819277115E+01
 0.62632743790E+01 0.65283663940E+01 0.68901320501E+01 0.73679288844E+01 0.79888817059E+01
 0.87880217988E+01 0.98068829278E+01 0.11091037788E+02 0.12685488074E+02 0.14630222931E+02
 0.16963065204E+02 0.19720945208E+02 0.22936280632E+02 0.26624371687E+02 0.30760865880E+02
 0.35254024270E+02 0.39922074013E+02 0.44488257635E+02 0.48602702846E+02 0.51891058956E+02
 0.54019088365E+02 0.54755892227E+02 0.54019086411E+02 0.51891057485E+02 0.48602703850E+02
 0.44488260409E+02 0.39922076446E+02 0.35254025972E+02 0.30760868643E+02 0.26624376350E+02
 0.22936284941E+02 0.19720946183E+02 0.16963062878E+02 0.14630220196E+02 0.12685487150E+02
 0.11091038334E+02 0.98068835484E+01 0.87880218361E+01 0.79888811471E+01 0.83267522882E+01
 0.77701331422E+01 0.73496921152E+01 0.70397066653E+01 0.68215417740E+01 0.66825788160E+01
 0.66149902550E+01 0.66149884661E+01 0.66825761288E+01 0.68215413054E+01 0.70397070343E+01
 0.73496918284E+01 0.77701342089E+01 0.83267550031E+01 0.90524661038E+01 0.99861945386E+01
 0.11170880859E+02 0.12651830534E+02 0.14476663717E+02 0.16692714864E+02 0.19345124879E+02
 0.22479452815E+02 0.26132187493E+02 0.30309147001E+02 0.34954827531E+02 0.39922083200E+02
 0.44956023881E+02 0.49704901187E+02 0.53762414278E+02 0.56733364310E+02 0.58304977816E+02
 0.58304967638E+02 0.56733342376E+02 0.53762394314E+02 0.49704886187E+02 0.44956010792E+02
 0.39922074650E+02 0.34954828039E+02 0.30309153387E+02 0.26132192965E+02 0.22479456248E+02
 0.19345128067E+02 0.16692715739E+02 0.14476660422E+02 0.12651827390E+02 0.11170882375E+02
 0.99861977237E+01 0.90524657750E+01 0.93409621709E+01 0.86890456425E+01 0.81986302006E+01
 0.78380530435E+01 0.75820287945E+01 0.74118335156E+01 0.73146936784E+01 0.72831347143E+01
 0.73146877907E+01 0.74118315417E+01 0.75820320751E+01 0.78380535397E+01 0.81986275130E+01
 0.86890472169E+01 0.93409666754E+01 0.10191073851E+02 0.11279091983E+02 0.12646284658E+02
 0.14335931150E+02 0.16396522378E+02 0.18885268793E+02 0.21859842599E+02 0.25372287840E+02
 0.29454914805E+02 0.34089725976E+02 0.39172919870E+02 0.44488273411E+02 0.49704908436E+02
 0.54408867774E+02 0.58164922101E+02 0.60592061254E+02 0.61431559761E+02 0.60592038270E+02
 0.58164891995E+02 0.54408840915E+02 0.49704884578E+02 0.44488256024E+02 0.39172916424E+02
 0.34089732935E+02 0.29454919881E+02 0.25372288284E+02 0.21859845277E+02 0.18885273118E+02
 0.16396520721E+02 0.14335925614E+02 0.12646285338E+02 0.11279098348E+02 0.10191075408E+02
 0.10381900808E+02 0.96147004034E+01 0.90378048527E+01 0.86156192208E+01 0.83165676956E+01
 0.81148567021E+01 0.79911359944E+01 0.79325096144E+01 0.79325045130E+01 0.79911302301E+01
 0.81148604783E+01 0.83165727056E+01 0.86156158246E+01 0.90378010162E+01 0.96147050975E+01
 0.10381905366E+02 0.11376556263E+02 0.12635515632E+02 0.14195627606E+02 0.16097351505E+02
 0.18391081495E+02 0.21142326540E+02 0.24423326738E+02 0.28287460389E+02 0.32750386523E+02
 0.37754669424E+02 0.43135053441E+02 0.48602717031E+02 0.53762414018E+02 0.58164912712E+02
 0.61381800497E+02 0.63080521637E+02 0.63080513505E+02 0.61381783442E+02 0.58164896038E+02
 0.53762396748E+02 0.48602699994E+02 0.43135047285E+02 0.37754677093E+02 0.32750393777E+02
 0.28287457231E+02 0.24423322039E+02 0.21142328737E+02 0.18391082965E+02 0.16097346083E+02
 0.14195624836E+02 0.12635522213E+02 0.11376561517E+02 0.11416557846E+02 0.10512331115E+02
 0.98276855881E+01 0.93265499723E+01 0.89730387672E+01 0.87346110558E+01 0.85843959960E+01
 0.85024663311E+01 0.84765390910E+01 0.85024608353E+01 0.85843964336E+01 0.87346170570E+01
 0.89730385725E+01 0.93265439516E+01 0.98276857035E+01 0.10512337127E+02 0.11416557760E+02
 0.12573859541E+02 0.14014627661E+02 0.15769292067E+02 0.17875460042E+02 0.20386302365E+02
 0.23374136500E+02 0.26919641875E+02 0.31070968721E+02 0.35813509955E+02 0.41038264101E+02
 0.46514577718E+02 0.51891057899E+02 0.56733343348E+02 0.60592039475E+02 0.63080514258E+02
 0.63940176924E+02 0.63080511547E+02 0.60592042655E+02 0.56733349987E+02 0.51891057485E+02
 0.46514573361E+02 0.41038268089E+02 0.35813518967E+02 0.31070967608E+02 0.26919631182E+02
 0.23374131640E+02 0.20386305969E+02 0.17875459967E+02 0.15769286686E+02 0.14014627983E+02
 0.12573865636E+02 0.12410505471E+02 0.11348635244E+02 0.10532108399E+02 0.99288025146E+01
 0.95020489835E+01 0.92145234718E+01 0.90321708056E+01 0.89271419032E+01 0.88797381786E+01
 0.88797358184E+01 0.89271403728E+01 0.90321747803E+01 0.92145257766E+01 0.95020442213E+01
 0.99287983697E+01 0.10532111199E+02 0.11348638170E+02 0.12410502942E+02 0.13743310337E+02
 0.15367978138E+02 0.17307403189E+02 0.19596560686E+02 0.22291122054E+02 0.25467058962E+02
 0.29203843458E+02 0.33535651939E+02 0.38407455686E+02 0.43654490430E+02 0.48988816040E+02
 0.54019068533E+02 0.58304949083E+02 0.61431544316E+02 0.63080511912E+02 0.63080513938E+02
 0.61431556105E+02 0.58304972902E+02 0.54019089879E+02 0.48988822510E+02 0.43654489483E+02
 0.38407457926E+02 0.33535652233E+02 0.29203835117E+02 0.25467051038E+02 0.22291124578E+02
 0.19596566453E+02 0.17307401455E+02 0.15367973484E+02 0.13743311434E+02 0.13331000498E+02
 0.12095750209E+02 0.11123650552E+02 0.10391232389E+02 0.98656671070E+01 0.95084244070E+01
 0.92802558928E+01 0.91457963226E+01 0.90771086949E+01 0.90562720824E+01 0.90771062907E+01
 0.91457976843E+01 0.92802599620E+01 0.95084235202E+01 0.98656614183E+01 0.10391230064E+02
 0.11123653221E+02 0.12095751609E+02 0.13330999636E+02 0.14843359283E+02 0.16642278378E+02
 0.18742741811E+02 0.21177057429E+02 0.24001661079E+02 0.27291120548E+02 0.31114435354E+02
 0.35483027305E+02 0.40298139389E+02 0.45345244093E+02 0.50298270407E+02 0.54755867387E+02
 0.58304952738E+02 0.60592042860E+02 0.61381796453E+02 0.60592053484E+02 0.58304976207E+02
 0.54755895612E+02 0.50298288004E+02 0.45345246292E+02 0.40298134640E+02 0.35483022015E+02
 0.31114429104E+02 0.27291115880E+02 0.24001663398E+02 0.21177063931E+02 0.18742743635E+02
 0.16642274740E+02 0.14843357280E+02 0.14149563916E+02 0.12734239131E+02 0.11587654126E+02
 0.10699221319E+02 0.10044955106E+02 0.95898843080E+01 0.92932198862E+01 0.91141639321E+01
 0.90170634980E+01 0.89755369998E+01 0.89755360973E+01 0.90170631302E+01 0.91141663067E+01
 0.92932219441E+01 0.95898824753E+01 0.10044951579E+02 0.10699220509E+02 0.11587655823E+02
 0.12734240230E+02 0.14149564355E+02 0.15833310592E+02 0.17782623286E+02 0.20004766727E+02
 0.22528939639E+02 0.25409587136E+02 0.28714369327E+02 0.32494891994E+02 0.36734921089E+02
 0.41296434209E+02 0.45930384334E+02 0.50298269704E+02 0.54019071485E+02 0.56733350052E+02
 0.58164917459E+02 0.58164921398E+02 0.56733361998E+02 0.54019089255E+02 0.50298286550E+02
 0.45930393023E+02 0.41296432811E+02 0.36734913350E+02 0.32494883688E+02 0.28714365169E+02
 0.25409588434E+02 0.22528943129E+02 0.20004767816E+02 0.17782621405E+02 0.15833308857E+02
 0.14843542842E+02 0.13254394951E+02 0.11923950410E+02 0.10857545516E+02 0.10044588976E+02
 0.94588831187E+01 0.90630065027E+01 0.88145207802E+01 0.86723004299E+01 0.86021536907E+01
 0.85814201819E+01 0.86021556876E+01 0.86723011906E+01 0.88145199562E+01 0.90630067628E+01
 0.94588843351E+01 0.10044588419E+02 0.10857543710E+02 0.11923950617E+02 0.13254396952E+02
 0.14843543409E+02 0.16675669898E+02 0.18736043443E+02 0.21024932494E+02 0.23567857678E+02
 0.26414515863E+02 0.29621489739E+02 0.33220015041E+02 0.37167090356E+02 0.41296431954E+02
 0.45345240708E+02 0.48988813937E+02 0.51891057899E+02 0.53762416509E+02 0.54408872159E+02
 0.53762417439E+02 0.51891058956E+02 0.48988816237E+02 0.45345245001E+02 0.41296434443E+02
 0.37167086574E+02 0.33220007182E+02 0.29621484111E+02 0.26414513854E+02 0.23567855578E+02
 0.21024929368E+02 0.18736042172E+02 0.16675670591E+02 0.15396491253E+02 0.13655586435E+02
 0.12145818928E+02 0.10889738185E+02 0.98934357206E+01 0.91442587398E+01 0.86135609472E+01
 0.82623664476E+01 0.80480794380E+01 0.79311288085E+01 0.78809857693E+01 0.78809889083E+01
 0.79311320375E+01 0.80480763476E+01 0.82623629614E+01 0.86135636969E+01 0.91442622782E+01
 0.98934335041E+01 0.10889735268E+02 0.12145821449E+02 0.13655589166E+02 0.15396488036E+02
 0.17338044738E+02 0.19455362132E+02 0.21743101665E+02 0.24223002844E+02 0.26938398310E+02
 0.29933281582E+02 0.33220016181E+02 0.36734919099E+02 0.40298136696E+02 0.43654489467E+02
 0.46514574409E+02 0.48602710295E+02 0.49704905744E+02 0.49704905489E+02 0.48602705352E+02
 0.46514561836E+02 0.43654476578E+02 0.40298130160E+02 0.36734914669E+02 0.33220008704E+02
 0.29933274950E+02 0.26938396143E+02 0.24223000164E+02 0.21743095373E+02 0.19455358787E+02
 0.17338048326E+02 0.15797562363E+02 0.13943863530E+02 0.12276333861E+02 0.10833916858E+02
 0.96407562791E+01 0.87011871812E+01 0.80002952601E+01 0.75081972885E+01 0.71861832074E+01
 0.69935477219E+01 0.68944873761E+01 0.68643974351E+01 0.68944925650E+01 0.69935470480E+01
 0.71861767423E+01 0.75081964182E+01 0.80003005194E+01 0.87011877290E+01 0.96407516976E+01
 0.10833917616E+02 0.12276339694E+02 0.13943863186E+02 0.15797555527E+02 0.17794664830E+02
 0.19903126659E+02 0.22114262259E+02 0.24446953111E+02 0.26938401003E+02 0.29621495166E+02
 0.32494892697E+02 0.35483025264E+02 0.38407459342E+02 0.41038269527E+02 0.43135049397E+02
 0.44488263600E+02 0.44956022272E+02 0.44488263061E+02 0.43135036011E+02 0.41038244151E+02
 0.38407437998E+02 0.35483014275E+02 0.32494883754E+02 0.29621485990E+02 0.26938398896E+02
 0.24446956788E+02 0.22114261708E+02 0.19903122415E+02 0.17794666807E+02 0.16040337021E+02
 0.14128473019E+02 0.12342845176E+02 0.10735791241E+02 0.93485622704E+01 0.82038836067E+01
 0.73041240915E+01 0.66336347745E+01 0.61634798108E+01 0.58574605050E+01 0.56789683256E+01
 0.55981394259E+01 0.55981434126E+01 0.56789718091E+01 0.58574552345E+01 0.61634747940E+01
 0.66336388032E+01 0.73041285083E+01 0.82038797515E+01 0.93485587968E+01 0.10735796771E+02
 0.12342850949E+02 0.14128469970E+02 0.16040332901E+02 0.18027584655E+02 0.20055165747E+02
 0.22114257855E+02 0.24223001133E+02 0.26414521819E+02 0.28714373028E+02 0.31114430950E+02
 0.33535651191E+02 0.35813520360E+02 0.37754677871E+02 0.39172915467E+02 0.39922077187E+02
 0.39922078604E+02 0.39172909841E+02 0.37754655889E+02 0.35813494747E+02 0.33535637789E+02
 0.31114425627E+02 0.28714366382E+02 0.26414519290E+02 0.24223009079E+02 0.22114266430E+02
 0.20055165011E+02 0.18027582075E+02 0.16121580978E+02 0.14218164951E+02 0.12370761024E+02
 0.10640164048E+02 0.90814231051E+01 0.77346083528E+01 0.66207593563E+01 0.57420853684E+01
 0.50847568697E+01 0.46232497631E+01 0.43260636362E+01 0.41626993117E+01 0.41109606448E+01
 0.41627049719E+01 0.43260629454E+01 0.46232433116E+01 0.50847573924E+01 0.57420925335E+01
 0.66207599796E+01 0.77346020387E+01 0.90814228745E+01 0.10640171178E+02 0.12370763920E+02
 0.14218163043E+02 0.16121584832E+02 0.18027586470E+02 0.19903121233E+02 0.21743092753E+02
 0.23567857678E+02 0.25409592653E+02 0.27291117163E+02 0.29203833583E+02 0.31070968721E+02
 0.32750396786E+02 0.34089730361E+02 0.34954822920E+02 0.35254024270E+02 0.34954823802E+02
 0.34089721169E+02 0.32750380437E+02 0.31070961238E+02 0.29203837643E+02 0.27291120735E+02
 0.25409593811E+02 0.23567865817E+02 0.21743105118E+02 0.19903123757E+02 0.18027578969E+02
 0.16040329628E+02 0.14218162946E+02 0.12377930215E+02 0.10582555636E+02 0.88955394926E+01
 0.73707894510E+01 0.60468334373E+01 0.49450430535E+01 0.40703610991E+01 0.34134661445E+01
 0.29544090476E+01 0.26681857684E+01 0.25319167352E+01 0.25319203496E+01 0.26681890948E+01
 0.29544050069E+01 0.34134631771E+01 0.40703668384E+01 0.49450486224E+01 0.60468299228E+01
 0.73707845045E+01 0.88955419492E+01 0.10582559444E+02 0.12377929228E+02 0.14218165326E+02
 0.16040341241E+02 0.17794668766E+02 0.19455355503E+02 0.21024927005E+02 0.22528944279E+02
 0.24001665015E+02 0.25467051370E+02 0.26919631937E+02 0.28287460283E+02 0.29454918742E+02
 0.30309144674E+02 0.30760861756E+02 0.30760863931E+02 0.30309145606E+02 0.29454914942E+02
 0.28287461747E+02 0.26919645097E+02 0.25467065690E+02 0.24001670913E+02 0.22528948485E+02
 0.21024935622E+02 0.19455358913E+02 0.17794659335E+02 0.15797553017E+02 0.14128468991E+02
 0.12370762617E+02 0.10582557146E+02 0.88290763037E+01 0.71724919331E+01 0.56651024955E+01
 0.43460290266E+01 0.32401358563E+01 0.23579968399E+01 0.16969452493E+01 0.12441687806E+01
 0.98238009082E+00 0.89701078640E+00 0.98238399944E+00 0.12441683568E+01 0.16969412536E+01
 0.23579983452E+01 0.32401422882E+01 0.43460306490E+01 0.56650986522E+01 0.71724911255E+01
 0.88290787541E+01 0.10582555507E+02 0.12370759385E+02 0.14128474373E+02 0.15797565487E+02
 0.17338047430E+02 0.18736038909E+02 0.20004767430E+02 0.21177065348E+02 0.22291125710E+02
 0.23374131965E+02 0.24423322694E+02 0.25372287990E+02 0.26132185884E+02 0.26624367152E+02
 0.26794832493E+02 0.26624370570E+02 0.26132188176E+02 0.25372292655E+02 0.24423336898E+02
 0.23374150078E+02 0.22291134319E+02 0.21177063797E+02 0.20004766038E+02 0.18736038575E+02
 0.17338039937E+02 0.15396484718E+02 0.13943860780E+02 0.12342847399E+02 0.10640166999E+02
 0.88955389705E+01 0.71724901836E+01 0.55313049153E+01 0.40248197318E+01 0.26960686822E+01
 0.15764751703E+01 0.68439390749E+00 0.25160425375E-01 -.40599554138E+00 -.61817779192E+00
 -.61817551405E+00 -.40599334598E+00 0.25158048732E-01 0.68439194056E+00 0.15764784640E+01
 0.26960725356E+01 0.40248193634E+01 0.55313045819E+01 0.71724935317E+01 0.88955404187E+01
 0.10640162552E+02 0.12342844139E+02 0.13943865592E+02 0.15396493135E+02 0.16675669045E+02
 0.17782620177E+02 0.18742744217E+02 0.19596566748E+02 0.20386305961E+02 0.21142328178E+02
 0.21859845005E+02 0.22479453612E+02 0.22936278413E+02 0.23178893422E+02 0.23178896777E+02
 0.22936284406E+02 0.22479458241E+02 0.21859851697E+02 0.21142338220E+02 0.20386311356E+02
 0.19596561897E+02 0.18742735313E+02 0.17782614151E+02 0.16675663206E+02 0.14843539256E+02
 0.13655585609E+02 0.12276335162E+02 0.10735792732E+02 0.90814213356E+01 0.73707853115E+01
 0.56650998266E+01 0.40248193963E+01 0.25066670422E+01 0.11607619168E+01 0.27266636756E-01
 -.86648483861E+00 -.15065316721E+01 -.18893891371E+01 -.20165916123E+01 -.18893862074E+01
 -.15065310547E+01 -.86648697239E+00 0.27266559993E-01 0.11607644222E+01 0.25066680633E+01
 0.40248193648E+01 0.56651031866E+01 0.73707908461E+01 0.90814228745E+01 0.10735789963E+02
 0.12276334267E+02 0.13655588878E+02 0.14843543409E+02 0.15833307484E+02 0.16642274993E+02
 0.17307401938E+02 0.17875460042E+02 0.18391083133E+02 0.18885273177E+02 0.19345128893E+02
 0.19720945208E+02 0.19967327944E+02 0.20053149531E+02 0.19967337214E+02 0.19720954234E+02
 0.19345132063E+02 0.18885272655E+02 0.18391079889E+02 0.17875451670E+02 0.17307390283E+02
 0.16642266071E+02 0.15833302663E+02 0.14149561112E+02 0.13254394450E+02 0.12145818644E+02
 0.10833916080E+02 0.93485598582E+01 0.77346045122E+01 0.60468311875E+01 0.43460294249E+01
 0.26960698771E+01 0.11607621434E+01 -.20045305407E+00 -.13375287479E+01 -.22137234123E+01
 -.28064701042E+01 -.31047652597E+01 -.31047635648E+01 -.28064677738E+01 -.22137235815E+01
 -.13375294961E+01 -.20045190645E+00 0.11607632029E+01 0.26960689438E+01 0.43460294634E+01
 0.60468350452E+01 0.77346094438E+01 0.93485620150E+01 0.10833916430E+02 0.12145819942E+02
 0.13254396585E+02 0.14149563873E+02 0.14843358097E+02 0.15367975668E+02 0.15769287251E+02
 0.16097346276E+02 0.16396521192E+02 0.16692717658E+02 0.16963066202E+02 0.17169085419E+02
 0.17280439735E+02 0.17280445060E+02 0.17169095270E+02 0.16963070642E+02 0.16692714531E+02
 0.16396514079E+02 0.16097336682E+02 0.15769275479E+02 0.15367965098E+02 0.14843352064E+02
 0.13330997857E+02 0.12734238681E+02 0.11923950281E+02 0.10889737525E+02 0.96407557086E+01
 0.82038826779E+01 0.66207596268E+01 0.49450453518E+01 0.32401383165E+01 0.15764757668E+01
 0.27265626167E-01 -.13375293679E+01 -.24576187348E+01 -.32870381037E+01 -.37954880860E+01
 -.39666451137E+01 -.37954861621E+01 -.32870371261E+01 -.24576189664E+01 -.13375283106E+01
 0.27267806659E-01 0.15764760578E+01 0.32401365071E+01 0.49450446856E+01 0.66207612263E+01
 0.82038841553E+01 0.96407558773E+01 0.10889737961E+02 0.11923951864E+02 0.12734240933E+02
 0.13331001774E+02 0.13743313993E+02 0.14014628908E+02 0.14195623562E+02 0.14335925519E+02
 0.14476662108E+02 0.14630224178E+02 0.14769016607E+02 0.14865036376E+02 0.14899284009E+02
 0.14865039367E+02 0.14769017120E+02 0.14630219627E+02 0.14476655317E+02 0.14335918653E+02
 0.14195615538E+02 0.14014619858E+02 0.13743306820E+02 0.12410504480E+02 0.12095752027E+02
 0.11587657343E+02 0.10857548012E+02 0.98934386208E+01 0.87011896609E+01 0.73041255247E+01
 0.57420868872E+01 0.40703622222E+01 0.23579965157E+01 0.68439209050E+00 -.86648643949E+00
 -.22137235468E+01 -.32870377134E+01 -.40322458127E+01 -.44135869419E+01 -.44135861025E+01
 -.40322447799E+01 -.32870378713E+01 -.22137231412E+01 -.86648382237E+00 0.68439509199E+00
 0.23579976000E+01 0.40703621564E+01 0.57420870591E+01 0.73041248498E+01 0.87011869838E+01
 0.98934354516E+01 0.10857546008E+02 0.11587655865E+02 0.12095750864E+02 0.12410505853E+02
 0.12573866287E+02 0.12635520421E+02 0.12646283913E+02 0.12651828179E+02 0.12685489006E+02
 0.12741760179E+02 0.12795787260E+02 0.12828091040E+02 0.12828089529E+02 0.12795782195E+02
 0.12741752224E+02 0.12685481480E+02 0.12651823088E+02 0.12646279299E+02 0.12635514546E+02
 0.12573861345E+02 0.11416560321E+02 0.11348641420E+02 0.11123658397E+02 0.10699227100E+02
 0.10044593184E+02 0.91442617946E+01 0.80002947657E+01 0.66336315778E+01 0.50847529185E+01
 0.34134625964E+01 0.16969425102E+01 0.25158583885E-01 -.15065320830E+01 -.28064696033E+01
 -.37954877764E+01 -.44135869824E+01 -.46237683324E+01 -.44135858616E+01 -.37954874088E+01
 -.28064699455E+01 -.15065310547E+01 0.25161441101E-01 0.16969457881E+01 0.34134661278E+01
 0.50847573924E+01 0.66336353855E+01 0.80002950930E+01 0.91442585994E+01 0.10044588419E+02
 0.10699220793E+02 0.11123649837E+02 0.11348633528E+02 0.11416557760E+02 0.11376561293E+02
 0.11279096368E+02 0.11170881482E+02 0.11091037788E+02 0.11057479805E+02 0.11053104612E+02
 0.11058937075E+02 0.11062351071E+02 0.11058931770E+02 0.11053096434E+02 0.11057472995E+02
 0.11091034674E+02 0.11170879746E+02 0.11279093093E+02 0.11376558598E+02 0.10381907314E+02
 0.10512341000E+02 0.10532118135E+02 0.10391237844E+02 0.10044955681E+02 0.94588819505E+01
 0.86135565340E+01 0.75081892364E+01 0.61634712372E+01 0.46232433099E+01 0.29544058796E+01
 0.12441677516E+01 -.40599577752E+00 -.18893893279E+01 -.31047660817E+01 -.39666462993E+01
 -.44135866507E+01 -.44135855422E+01 -.39666444592E+01 -.31047654048E+01 -.18893892668E+01
 -.40599509772E+00 0.12441690113E+01 0.29544082892E+01 0.46232488766E+01 0.61634798522E+01
 0.75081970727E+01 0.86135603497E+01 0.94588821282E+01 0.10044952937E+02 0.10391230718E+02
 0.10532106889E+02 0.10512330471E+02 0.10381901977E+02 0.10191074506E+02 0.99861954934E+01
 0.98068820862E+01 0.96824712885E+01 0.96109818327E+01 0.95747367148E+01 0.95602165006E+01