   4   4   0   0
  0.1609642E+02  0.3587308E-09  0.3587308E-09  0.5777254E-09  0.5000000E-15
  1.000000000000000E-004
  CAR 
 unknown system                          
     25.60431141    -12.36455176  301      3.88963181      1.00000000
    -12.365  0.0000E+00  0.0000E+00
    -12.238  0.0000E+00  0.0000E+00
    -12.111  0.0000E+00  0.0000E+00
    -11.985  0.0000E+00  0.0000E+00
    -11.858  0.0000E+00  0.0000E+00
    -11.732  0.0000E+00  0.0000E+00
    -11.605  0.0000E+00  0.0000E+00
    -11.479  0.0000E+00  0.0000E+00
    -11.352  0.0000E+00  0.0000E+00
    -11.225  0.0000E+00  0.0000E+00
    -11.099  0.0000E+00  0.0000E+00
    -10.972  0.0000E+00  0.0000E+00
    -10.846  0.0000E+00  0.0000E+00
    -10.719  0.0000E+00  0.0000E+00
    -10.593  0.0000E+00  0.0000E+00
    -10.466  0.0000E+00  0.0000E+00
    -10.340  0.2564E-03  0.2137E-05
    -10.213  0.5090E-02  0.3772E-03
    -10.086  0.7359E-02  0.1133E-02
     -9.960  0.9450E-02  0.2225E-02
     -9.833  0.1137E-01  0.3536E-02
     -9.707  0.1358E-01  0.5111E-02
     -9.580  0.1576E-01  0.6969E-02
     -9.454  0.1806E-01  0.9106E-02
     -9.327  0.2094E-01  0.1157E-01
     -9.200  0.2452E-01  0.1443E-01
     -9.074  0.2944E-01  0.1783E-01
     -8.947  0.3648E-01  0.2198E-01
     -8.821  0.5815E-01  0.2734E-01
     -8.694  0.6008E-01  0.3457E-01
     -8.568  0.6078E-01  0.4208E-01
     -8.441  0.6467E-01  0.5012E-01
     -8.315  0.7487E-01  0.5842E-01
     -8.188  0.3219E-01  0.6667E-01
     -8.061  0.0000E+00  0.6667E-01
     -7.935  0.0000E+00  0.6667E-01
     -7.808  0.0000E+00  0.6667E-01
     -7.682  0.0000E+00  0.6667E-01
     -7.555  0.0000E+00  0.6667E-01
     -7.429  0.0000E+00  0.6667E-01
     -7.302  0.0000E+00  0.6667E-01
     -7.175  0.0000E+00  0.6667E-01
     -7.049  0.0000E+00  0.6667E-01
     -6.922  0.0000E+00  0.6667E-01
     -6.796  0.0000E+00  0.6667E-01
     -6.669  0.0000E+00  0.6667E-01
     -6.543  0.0000E+00  0.6667E-01
     -6.416  0.0000E+00  0.6667E-01
     -6.290  0.0000E+00  0.6667E-01
     -6.163  0.0000E+00  0.6667E-01
     -6.036  0.0000E+00  0.6667E-01
     -5.910  0.0000E+00  0.6667E-01
     -5.783  0.0000E+00  0.6667E-01
     -5.657  0.0000E+00  0.6667E-01
     -5.530  0.0000E+00  0.6667E-01
     -5.404  0.0000E+00  0.6667E-01
     -5.277  0.0000E+00  0.6667E-01
     -5.150  0.0000E+00  0.6667E-01
     -5.024  0.0000E+00  0.6667E-01
     -4.897  0.0000E+00  0.6667E-01
     -4.771  0.0000E+00  0.6667E-01
     -4.644  0.0000E+00  0.6667E-01
     -4.518  0.0000E+00  0.6667E-01
     -4.391  0.0000E+00  0.6667E-01
     -4.265  0.0000E+00  0.6667E-01
     -4.138  0.0000E+00  0.6667E-01
     -4.011  0.0000E+00  0.6667E-01
     -3.885  0.0000E+00  0.6667E-01
     -3.758  0.0000E+00  0.6667E-01
     -3.632  0.0000E+00  0.6667E-01
     -3.505  0.0000E+00  0.6667E-01
     -3.379  0.0000E+00  0.6667E-01
     -3.252  0.0000E+00  0.6667E-01
     -3.125  0.0000E+00  0.6667E-01
     -2.999  0.0000E+00  0.6667E-01
     -2.872  0.0000E+00  0.6667E-01
     -2.746  0.0000E+00  0.6667E-01
     -2.619  0.0000E+00  0.6667E-01
     -2.493  0.0000E+00  0.6667E-01
     -2.366  0.0000E+00  0.6667E-01
     -2.240  0.0000E+00  0.6667E-01
     -2.113  0.0000E+00  0.6667E-01
     -1.986  0.0000E+00  0.6667E-01
     -1.860  0.0000E+00  0.6667E-01
     -1.733  0.0000E+00  0.6667E-01
     -1.607  0.3553E-03  0.6667E-01
     -1.480  0.4156E-02  0.6687E-01
     -1.354  0.2736E-01  0.6871E-01
     -1.227  0.4100E-01  0.7318E-01
     -1.100  0.7031E-01  0.7981E-01
     -0.974  0.7852E-01  0.8839E-01
     -0.847  0.5075E-01  0.9769E-01
     -0.721  0.3442E-01  0.1026E+00
     -0.594  0.3816E-01  0.1070E+00
     -0.468  0.3578E-01  0.1118E+00
     -0.341  0.2223E-01  0.1153E+00
     -0.215  0.1833E-01  0.1179E+00
     -0.088  0.1504E-01  0.1200E+00
      0.039  0.1263E-01  0.1217E+00
      0.165  0.1489E-01  0.1235E+00
      0.292  0.1388E-01  0.1253E+00
      0.418  0.1405E-01  0.1271E+00
      0.545  0.1876E-01  0.1290E+00
      0.671  0.3323E-01  0.1325E+00
      0.798  0.3265E-01  0.1367E+00
      0.925  0.2546E-01  0.1404E+00
      1.051  0.2557E-01  0.1436E+00
      1.178  0.2832E-01  0.1469E+00
      1.304  0.3438E-01  0.1508E+00
      1.431  0.3986E-01  0.1555E+00
      1.557  0.4328E-01  0.1609E+00
      1.684  0.4330E-01  0.1663E+00
      1.810  0.4200E-01  0.1717E+00
      1.937  0.4575E-01  0.1772E+00
      2.064  0.4678E-01  0.1831E+00
      2.190  0.5227E-01  0.1894E+00
      2.317  0.5196E-01  0.1959E+00
      2.443  0.6182E-01  0.2029E+00
      2.570  0.7588E-01  0.2118E+00
      2.696  0.9149E-01  0.2224E+00
      2.823  0.7210E-01  0.2326E+00
      2.950  0.5908E-01  0.2407E+00
      3.076  0.4782E-01  0.2476E+00
      3.203  0.3586E-01  0.2529E+00
      3.329  0.3083E-01  0.2570E+00
      3.456  0.2454E-01  0.2606E+00
      3.582  0.1957E-01  0.2633E+00
      3.709  0.1260E-01  0.2654E+00
      3.835  0.5086E-02  0.2666E+00
      3.962  0.3906E-05  0.2667E+00
      4.089  0.2884E-04  0.2667E+00
      4.215  0.7682E-04  0.2667E+00
      4.342  0.1478E-03  0.2667E+00
      4.468  0.2419E-03  0.2667E+00
      4.595  0.3590E-03  0.2668E+00
      4.721  0.5449E-03  0.2668E+00
      4.848  0.9330E-03  0.2669E+00
      4.975  0.1229E-02  0.2670E+00
      5.101  0.1504E-02  0.2672E+00
      5.228  0.1826E-02  0.2674E+00
      5.354  0.2206E-02  0.2677E+00
      5.481  0.2619E-02  0.2680E+00
      5.607  0.3071E-02  0.2683E+00
      5.734  0.3581E-02  0.2688E+00
      5.861  0.4275E-02  0.2693E+00
      5.987  0.4946E-02  0.2698E+00
      6.114  0.5669E-02  0.2705E+00
      6.240  0.6492E-02  0.2713E+00
      6.367  0.7531E-02  0.2722E+00
      6.493  0.9019E-02  0.2732E+00
      6.620  0.1097E-01  0.2745E+00
      6.746  0.1308E-01  0.2760E+00
      6.873  0.1588E-01  0.2778E+00
      7.000  0.2122E-01  0.2801E+00
      7.126  0.2544E-01  0.2831E+00
      7.253  0.2739E-01  0.2864E+00
      7.379  0.2644E-01  0.2899E+00
      7.506  0.2518E-01  0.2931E+00
      7.632  0.2430E-01  0.2962E+00
      7.759  0.2375E-01  0.2993E+00
      7.886  0.2401E-01  0.3023E+00
      8.012  0.2445E-01  0.3054E+00
      8.139  0.2479E-01  0.3085E+00
      8.265  0.2633E-01  0.3117E+00
      8.392  0.2752E-01  0.3151E+00
      8.518  0.2760E-01  0.3186E+00
      8.645  0.2482E-01  0.3220E+00
      8.771  0.2378E-01  0.3251E+00
      8.898  0.2093E-01  0.3279E+00
      9.025  0.2898E-01  0.3311E+00
      9.151  0.1011E-01  0.3332E+00
      9.278  0.8330E-02  0.3342E+00
      9.404  0.1433E-01  0.3356E+00
      9.531  0.1827E-01  0.3377E+00
      9.657  0.2983E-01  0.3406E+00
      9.784  0.4347E-01  0.3457E+00
      9.911  0.4435E-01  0.3516E+00
     10.037  0.5281E-01  0.3571E+00
     10.164  0.1217E+00  0.3676E+00
     10.290  0.6985E-01  0.3827E+00
     10.417  0.3529E-01  0.3880E+00
     10.543  0.2266E-01  0.3917E+00
     10.670  0.1648E-01  0.3940E+00
     10.796  0.1504E-01  0.3959E+00
     10.923  0.1593E-01  0.3978E+00
     11.050  0.1647E-01  0.3999E+00
     11.176  0.1695E-01  0.4020E+00
     11.303  0.1918E-01  0.4042E+00
     11.429  0.2195E-01  0.4068E+00
     11.556  0.2919E-01  0.4100E+00
     11.682  0.4356E-01  0.4145E+00
     11.809  0.5293E-01  0.4207E+00
     11.936  0.7037E-01  0.4283E+00
     12.062  0.5038E-01  0.4368E+00
     12.189  0.3256E-01  0.4414E+00
     12.315  0.2865E-01  0.4453E+00
     12.442  0.2724E-01  0.4488E+00
     12.568  0.2602E-01  0.4522E+00
     12.695  0.2744E-01  0.4555E+00
     12.821  0.3454E-01  0.4593E+00
     12.948  0.3430E-01  0.4639E+00
     13.075  0.3635E-01  0.4680E+00
     13.201  0.5558E-01  0.4741E+00
     13.328  0.4277E-01  0.4803E+00
     13.454  0.4500E-01  0.4856E+00
     13.581  0.3544E-01  0.4908E+00
     13.707  0.2987E-01  0.4949E+00
     13.834  0.2633E-01  0.4984E+00
     13.961  0.2638E-01  0.5017E+00
     14.087  0.2640E-01  0.5051E+00
     14.214  0.2684E-01  0.5084E+00
     14.340  0.2884E-01  0.5120E+00
     14.467  0.3282E-01  0.5158E+00
     14.593  0.3700E-01  0.5203E+00
     14.720  0.4619E-01  0.5255E+00
     14.846  0.2398E-01  0.5299E+00
     14.973  0.2095E-01  0.5326E+00
     15.100  0.2198E-01  0.5353E+00
     15.226  0.2447E-01  0.5382E+00
     15.353  0.3702E-01  0.5420E+00
     15.479  0.4730E-01  0.5477E+00
     15.606  0.2266E-01  0.5522E+00
     15.732  0.1996E-01  0.5549E+00
     15.859  0.1766E-01  0.5573E+00
     15.986  0.1769E-01  0.5595E+00
     16.112  0.1830E-01  0.5618E+00
     16.239  0.1839E-01  0.5641E+00
     16.365  0.1918E-01  0.5665E+00
     16.492  0.2078E-01  0.5690E+00
     16.618  0.2269E-01  0.5718E+00
     16.745  0.2741E-01  0.5749E+00
     16.871  0.3044E-01  0.5786E+00
     16.998  0.2846E-01  0.5823E+00
     17.125  0.2415E-01  0.5856E+00
     17.251  0.2367E-01  0.5887E+00
     17.378  0.2004E-01  0.5914E+00
     17.504  0.1754E-01  0.5937E+00
     17.631  0.1685E-01  0.5959E+00
     17.757  0.1703E-01  0.5981E+00
     17.884  0.1842E-01  0.6003E+00
     18.011  0.2166E-01  0.6028E+00
     18.137  0.1905E-01  0.6052E+00
     18.264  0.2199E-01  0.6077E+00
     18.390  0.3117E-01  0.6113E+00
     18.517  0.3677E-01  0.6156E+00
     18.643  0.3803E-01  0.6202E+00
     18.770  0.3664E-01  0.6251E+00
     18.896  0.3418E-01  0.6295E+00
     19.023  0.3357E-01  0.6338E+00
     19.150  0.3319E-01  0.6380E+00
     19.276  0.3435E-01  0.6423E+00
     19.403  0.3779E-01  0.6469E+00
     19.529  0.3925E-01  0.6518E+00
     19.656  0.3932E-01  0.6568E+00
     19.782  0.4047E-01  0.6618E+00
     19.909  0.3674E-01  0.6667E+00
     20.036  0.2920E-01  0.6710E+00
     20.162  0.2318E-01  0.6743E+00
     20.289  0.2385E-01  0.6772E+00
     20.415  0.3248E-01  0.6806E+00
     20.542  0.4601E-01  0.6855E+00
     20.668  0.5018E-01  0.6918E+00
     20.795  0.4421E-01  0.6978E+00
     20.921  0.3909E-01  0.7029E+00
     21.048  0.3944E-01  0.7080E+00
     21.175  0.4859E-01  0.7135E+00
     21.301  0.5388E-01  0.7198E+00
     21.428  0.5753E-01  0.7271E+00
     21.554  0.4412E-01  0.7338E+00
     21.681  0.3010E-01  0.7384E+00
     21.807  0.1873E-01  0.7411E+00
     21.934  0.1840E-01  0.7435E+00
     22.061  0.1978E-01  0.7459E+00
     22.187  0.2298E-01  0.7486E+00
     22.314  0.2871E-01  0.7518E+00
     22.440  0.2797E-01  0.7552E+00
     22.567  0.3939E-01  0.7594E+00
     22.693  0.5246E-01  0.7655E+00
     22.820  0.5270E-01  0.7724E+00
     22.946  0.6132E-01  0.7784E+00
     23.073  0.7573E-01  0.7874E+00
     23.200  0.5862E-01  0.7962E+00
     23.326  0.1136E-01  0.7993E+00
     23.453  0.1097E-02  0.8000E+00
     23.579  0.2547E-04  0.8000E+00
     23.706  0.0000E+00  0.8000E+00
     23.832  0.0000E+00  0.8000E+00
     23.959  0.0000E+00  0.8000E+00
     24.086  0.0000E+00  0.8000E+00
     24.212  0.0000E+00  0.8000E+00
     24.339  0.0000E+00  0.8000E+00
     24.465  0.0000E+00  0.8000E+00
     24.592  0.0000E+00  0.8000E+00
     24.718  0.0000E+00  0.8000E+00
     24.845  0.0000E+00  0.8000E+00
     24.971  0.0000E+00  0.8000E+00
     25.098  0.0000E+00  0.8000E+00
     25.225  0.0000E+00  0.8000E+00
     25.351  0.0000E+00  0.8000E+00
     25.478  0.0000E+00  0.8000E+00
     25.604  0.0000E+00  0.8000E+00
