    4    4   60    1
  0.1609642E+02  0.3587308E-09  0.3587308E-09  0.5777254E-09  0.5000000E-15
  1.000000000000000E-004
  CAR 
 unknown system                          
     16     56     24
 
  0.1276756E-14  0.1276756E-14  0.1276756E-14  0.1666667E-02
      1        -10.364552   1.000000
      2         -8.707853   1.000000
      3         -1.667244   1.000000
      4          3.046826   1.000000
      5          3.046826   1.000000
      6          3.537698   1.000000
      7          3.887596   1.000000
      8          3.888364   1.000000
      9          3.888364   0.000002
     10          6.501194   0.000000
     11         10.618299   0.000000
     12         12.744173   0.000000
     13         12.744173   0.000000
     14         13.594821   0.000000
     15         13.983104   0.000000
     16         13.983105   0.000000
     17         15.631100   0.000000
     18         17.102513   0.000000
     19         17.102514   0.000000
     20         18.250427   0.000000
     21         18.250427   0.000000
     22         18.466868   0.000000
     23         19.204047   0.000000
     24         21.324651   0.000000
 
  0.1000000E+00  0.1276198E-14  0.1276756E-14  0.1000000E-01
      1        -10.264231   1.000000
      2         -8.648086   1.000000
      3         -1.559744   1.000000
      4          2.413463   1.000000
      5          2.689097   1.000000
      6          2.890503   1.000000
      7          3.799016   1.000000
      8          3.812788   1.000000
      9          4.756742  -0.000000
     10          7.030217   0.000000
     11         10.562308   0.000000
     12         11.951151   0.000000
     13         12.904319   0.000000
     14         13.338410   0.000000
     15         13.784099   0.000000
     16         14.110074   0.000000
     17         15.410360   0.000000
     18         16.631583   0.000000
     19         17.224210   0.000000
     20         18.435067   0.000000
     21         19.145112   0.000000
     22         19.407249   0.000000
     23         19.942513   0.000000
     24         21.761647   0.000000
 
  0.2000000E+00  0.1273117E-14  0.1276756E-14  0.1000000E-01
      1         -9.975763   1.000000
      2         -8.492069   1.000000
      3         -1.263891   1.000000
      4          1.195595   1.000000
      5          1.720908   1.000000
      6          2.516427   1.000000
      7          3.546885   1.000000
      8          3.606526   1.000000
      9          5.703882   0.000000
     10          7.968457   0.000000
     11         10.180958   0.000000
     12         11.065253   0.000000
     13         12.365117   0.000000
     14         13.248828   0.000000
     15         13.722739   0.000000
     16         14.281065   0.000000
     17         14.909038   0.000000
     18         16.578427   0.000000
     19         17.259338   0.000000
     20         19.534403   0.000000
     21         20.541254   0.000000
     22         20.670113   0.000000
     23         21.324201   0.000000
     24         21.708787   0.000000
 
  0.3000000E+00  0.1219524E-14  0.1276756E-14  0.1000000E-01
      1         -9.543970   1.000000
      2         -8.314600   1.000000
      3         -0.938743   1.000000
      4          0.142608   1.000000
      5          0.822930   1.000000
      6          2.103513   1.000000
      7          3.112798   1.000000
      8          3.347490   1.000000
      9          6.565475   0.000000
     10          8.514779   0.000000
     11          9.520291   0.000000
     12         10.609355   0.000000
     13         12.026146   0.000000
     14         13.211404   0.000000
     15         13.378557   0.000000
     16         14.485763   0.000000
     17         15.263801   0.000000
     18         17.161711   0.000000
     19         17.414720   0.000000
     20         19.040178   0.000000
     21         21.331659   0.000000
     22         22.350384   0.000000
     23         22.447283   0.000000
     24         22.708680   0.000000
 
  0.4000000E+00  0.1221233E-14  0.1276756E-14  0.1000000E-01
      1         -9.073900   1.000000
      2         -8.232289   1.000000
      3         -1.133019   1.000000
      4         -0.299212   1.000000
      5          0.473712   1.000000
      6          1.798072   1.000000
      7          2.570015   1.000000
      8          3.139709   1.000000
      9          7.253161   0.000000
     10          8.401291   0.000000
     11          9.195869   0.000000
     12         10.217012   0.000000
     13         12.093242   0.000000
     14         13.249444   0.000000
     15         13.323685   0.000000
     16         14.834231   0.000000
     17         15.382460   0.000000
     18         17.462956   0.000000
     19         18.334323   0.000000
     20         18.658098   0.000000
     21         21.195289   0.000000
     22         22.203050   0.000000
     23         23.046310   0.000000
     24         23.058107   0.000000
 
  0.5000000E+00  0.1231302E-14  0.1276756E-14  0.5000000E-02
      1         -8.818142   1.000000
      2         -8.260761   1.000000
      3         -1.355071   1.000000
      4         -0.496323   1.000000
      5          0.636291   1.000000
      6          1.686833   1.000000
      7          2.252944   1.000000
      8          3.061145   1.000000
      9          7.577905   0.000000
     10          8.217674   0.000000
     11          9.080782   0.000000
     12         10.101528   0.000000
     13         12.079934   0.000000
     14         13.177544   0.000000
     15         13.580928   0.000000
     16         14.993157   0.000000
     17         15.337179   0.000000
     18         17.727926   0.000000
     19         18.032763   0.000000
     20         19.429274   0.000000
     21         21.039716   0.000000
     22         22.378710   0.000000
     23         22.444423   0.000000
     24         22.547314   0.000000
 
  0.1000000E+00  0.1000000E+00  0.1276756E-14  0.1000000E-01
      1        -10.069579   1.000000
      2         -8.539761   1.000000
      3         -1.356979   1.000000
      4          1.726056   1.000000
      5          1.758117   1.000000
      6          2.667844   1.000000
      7          3.606322   1.000000
      8          3.637378   1.000000
      9          5.482823   0.000000
     10          7.766881   0.000000
     11         10.427854   0.000000
     12         11.133235   0.000000
     13         12.636336   0.000000
     14         13.154524   0.000000
     15         13.454363   0.000000
     16         14.555268   0.000000
     17         15.340970   0.000000
     18         15.647617   0.000000
     19         18.385006   0.000000
     20         18.801765   0.000000
     21         19.743753   0.000000
     22         20.391022   0.000000
     23         21.350467   0.000000
     24         21.426654   0.000000
 
  0.2000000E+00  0.1000000E+00  0.1276756E-14  0.2000000E-01
      1         -9.707158   1.000000
      2         -8.370310   1.000000
      3         -1.023798   1.000000
      4          0.631660   1.000000
      5          1.018671   1.000000
      6          2.132780   1.000000
      7          3.283644   1.000000
      8          3.307874   1.000000
      9          6.372874   0.000000
     10          8.606389   0.000000
     11          9.925541   0.000000
     12         10.618514   0.000000
     13         11.992365   0.000000
     14         12.946970   0.000000
     15         13.173434   0.000000
     16         14.869858   0.000000
     17         15.255403   0.000000
     18         16.140627   0.000000
     19         18.302995   0.000000
     20         19.837736   0.000000
     21         20.095516   0.000000
     22         21.452545   0.000000
     23         22.411074   0.000000
     24         22.590805   0.000000
 
  0.3000000E+00  0.1000000E+00  0.1276756E-14  0.2000000E-01
      1         -9.245953   1.000000
      2         -8.237257   1.000000
      3         -0.907436   1.000000
      4         -0.123346   1.000000
      5          0.535111   1.000000
      6          1.626910   1.000000
      7          2.814484   1.000000
      8          2.985909   1.000000
      9          7.209503   0.000000
     10          8.916270   0.000000
     11          9.319495   0.000000
     12         10.338473   0.000000
     13         11.995501   0.000000
     14         12.836654   0.000000
     15         12.926303   0.000000
     16         14.817842   0.000000
     17         15.604402   0.000000
     18         17.132588   0.000000
     19         18.286445   0.000000
     20         19.264411   0.000000
     21         20.988904   0.000000
     22         22.385264   0.000000
     23         22.492762   0.000000
     24         22.885773   0.000000
 
  0.4000000E+00  0.1000000E+00  0.1276756E-14  0.2000000E-01
      1         -8.841562   1.000000
      2         -8.236607   1.000000
      3         -1.216141   1.000000
      4         -0.426922   1.000000
      5          0.617672   1.000000
      6          1.407137   1.000000
      7          2.304509   1.000000
      8          2.809267   1.000000
      9          7.799897   0.000000
     10          8.733558   0.000000
     11          9.072684   0.000000
     12         10.093236   0.000000
     13         12.059751   0.000000
     14         12.722723   0.000000
     15         13.442479   0.000000
     16         14.662061   0.000000
     17         15.585587   0.000000
     18         18.023128   0.000000
     19         18.336731   0.000000
     20         19.177543   0.000000
     21         20.837698   0.000000
     22         22.306733   0.000000
     23         22.617110   0.000000
     24         23.011179   0.000000
 
  0.2000000E+00  0.2000000E+00  0.1276756E-14  0.1000000E-01
      1         -9.308590   1.000000
      2         -8.240677   1.000000
      3         -0.807699   1.000000
      4          0.075684   1.000000
      5          0.548957   1.000000
      6          1.435098   1.000000
      7          2.776540   1.000000
      8          2.926029   1.000000
      9          7.289334   0.000000
     10          9.181839   0.000000
     11          9.886620   0.000000
     12         10.161133   0.000000
     13         11.853994   0.000000
     14         12.301978   0.000000
     15         12.705170   0.000000
     16         15.175854   0.000000
     17         15.534778   0.000000
     18         16.551152   0.000000
     19         19.737735   0.000000
     20         19.752968   0.000000
     21         20.048334   0.000000
     22         21.607532   0.000000
     23         22.030221   0.000000
     24         22.944818   0.000000
 
  0.3000000E+00  0.2000000E+00  0.1276756E-14  0.2000000E-01
      1         -8.875892   1.000000
      2         -8.201315   1.000000
      3         -0.880664   1.000000
      4         -0.389575   1.000000
      5          0.648316   1.000000
      6          0.914638   1.000000
      7          2.350239   1.000000
      8          2.445165   1.000000
      9          8.164364   0.000000
     10          9.042252   0.000000
     11          9.713107   0.000000
     12         10.122717   0.000000
     13         11.968428   0.000000
     14         12.299858   0.000000
     15         12.640482   0.000000
     16         14.701618   0.000000
     17         15.427810   0.000000
     18         17.682416   0.000000
     19         19.676053   0.000000
     20         19.903434   0.000000
     21         20.566007   0.000000
     22         21.402309   0.000000
     23         22.333045   0.000000
     24         23.055219   0.000000
 
  0.4000000E+00  0.2000000E+00  0.1276756E-14  0.1000000E-01
      1         -8.628419   1.000000
      2         -8.256075   1.000000
      3         -1.031643   1.000000
      4         -0.448694   1.000000
      5          0.399091   1.000000
      6          1.187718   1.000000
      7          2.021596   1.000000
      8          2.261072   1.000000
      9          8.573479   0.000000
     10          8.926690   0.000000
     11          9.649468   0.000000
     12          9.960296   0.000000
     13         12.012854   0.000000
     14         12.106959   0.000000
     15         13.683042   0.000000
     16         13.900325   0.000000
     17         15.234271   0.000000
     18         18.866929   0.000000
     19         19.035457   0.000000
     20         19.706336   0.000000
     21         20.404744   0.000000
     22         21.378344   0.000000
     23         22.898689   0.000000
     24         23.604311   0.000000
 
  0.3000000E+00  0.3000000E+00  0.1276756E-14  0.1000000E-01
      1         -8.534026   1.000000
      2         -8.273958   1.000000
      3         -0.693211   1.000000
      4         -0.568850   1.000000
      5          0.040987   1.000000
      6          1.298997   1.000000
      7          1.931324   1.000000
      8          1.936517   1.000000
      9          8.805891   0.000000
     10          9.051272   0.000000
     11          9.720521   0.000000
     12         10.358908   0.000000
     13         11.896136   0.000000
     14         12.003809   0.000000
     15         13.257875   0.000000
     16         14.282456   0.000000
     17         14.517827   0.000000
     18         18.794374   0.000000
     19         20.050258   0.000000
     20         20.058006   0.000000
     21         20.316216   0.000000
     22         21.455538   0.000000
     23         22.230677   0.000000
     24         23.300173   0.000000
 
  0.1276756E-14  0.1276756E-14  0.1666667E+00  0.3333333E-02
      1        -10.283218   1.000000
      2         -8.866332   1.000000
      3         -1.360079   1.000000
      4          2.680594   1.000000
      5          3.101308   1.000000
      6          3.101309   1.000000
      7          3.830362   1.000000
      8          3.830362   1.000000
      9          4.681833  -0.000000
     10          6.500545   0.000000
     11         10.553523   0.000000
     12         12.754473   0.000000
     13         12.754474   0.000000
     14         12.821900   0.000000
     15         13.793736   0.000000
     16         13.793736   0.000000
     17         15.890054   0.000000
     18         17.345490   0.000000
     19         17.345490   0.000000
     20         18.301728   0.000000
     21         18.571154   0.000000
     22         18.571154   0.000000
     23         20.169317   0.000000
     24         21.268517   0.000000
 
  0.1000000E+00  0.1276198E-14  0.1666667E+00  0.2000000E-01
      1        -10.184333   1.000000
      2         -8.801158   1.000000
      3         -1.269681   1.000000
      4          2.220182   1.000000
      5          2.572880   1.000000
      6          2.949441   1.000000
      7          3.675397   1.000000
      8          3.748256   1.000000
      9          5.143291  -0.000000
     10          7.013905   0.000000
     11         10.467236   0.000000
     12         11.978149   0.000000
     13         12.859304   0.000000
     14         12.911851   0.000000
     15         13.318722   0.000000
     16         13.915297   0.000000
     17         15.989032   0.000000
     18         16.959180   0.000000
     19         17.394151   0.000000
     20         18.488476   0.000000
     21         19.216510   0.000000
     22         19.364193   0.000000
     23         20.660923   0.000000
     24         21.597536   0.000000
 
  0.2000000E+00  0.1273117E-14  0.1666667E+00  0.2000000E-01
      1         -9.900680   1.000000
      2         -8.628211   1.000000
      3         -1.042008   1.000000
      4          1.180313   1.000000
      5          1.646682   1.000000
      6          2.584400   1.000000
      7          3.461354   1.000000
      8          3.528002   1.000000
      9          5.884264   0.000000
     10          7.921113   0.000000
     11         10.089399   0.000000
     12         11.013879   0.000000
     13         12.363981   0.000000
     14         13.137208   0.000000
     15         13.255910   0.000000
     16         14.126617   0.000000
     17         15.204823   0.000000
     18         16.906687   0.000000
     19         17.595847   0.000000
     20         19.486191   0.000000
     21         20.200793   0.000000
     22         20.737691   0.000000
     23         21.636460   0.000000
     24         21.893724   0.000000
 
  0.3000000E+00  0.1219524E-14  0.1666667E+00  0.2000000E-01
      1         -9.478707   1.000000
      2         -8.420517   1.000000
      3         -0.911176   1.000000
      4          0.189284   1.000000
      5          0.880975   1.000000
      6          2.179546   1.000000
      7          3.142482   1.000000
      8          3.255657   1.000000
      9          6.559601   0.000000
     10          8.432819   0.000000
     11          9.554486   0.000000
     12         10.524345   0.000000
     13         12.034341   0.000000
     14         13.079922   0.000000
     15         13.423776   0.000000
     16         14.381376   0.000000
     17         14.871331   0.000000
     18         17.583766   0.000000
     19         17.653947   0.000000
     20         19.228442   0.000000
     21         20.850781   0.000000
     22         21.852837   0.000000
     23         22.379443   0.000000
     24         22.634631   0.000000
 
  0.4000000E+00  0.1221233E-14  0.1666667E+00  0.2000000E-01
      1         -9.025363   1.000000
      2         -8.297622   1.000000
      3         -1.231597   1.000000
      4         -0.445250   1.000000
      5          0.793987   1.000000
      6          1.879112   1.000000
      7          2.720015   1.000000
      8          3.039195   1.000000
      9          7.041971   0.000000
     10          8.304435   0.000000
     11          9.426193   0.000000
     12         10.207652   0.000000
     13         11.946560   0.000000
     14         13.281040   0.000000
     15         13.345422   0.000000
     16         14.713125   0.000000
     17         14.769449   0.000000
     18         17.904238   0.000000
     19         18.841991   0.000000
     20         18.854769   0.000000
     21         20.354671   0.000000
     22         22.394092   0.000000
     23         22.618459   0.000000
     24         23.452713   0.000000
 
  0.5000000E+00  0.1231302E-14  0.1666667E+00  0.1000000E-01
      1         -8.783445   1.000000
      2         -8.300297   1.000000
      3         -1.447469   1.000000
      4         -0.704873   1.000000
      5          0.968888   1.000000
      6          1.769532   1.000000
      7          2.465549   1.000000
      8          2.957690   1.000000
      9          7.229629   0.000000
     10          8.149916   0.000000
     11          9.477540   0.000000
     12         10.047684   0.000000
     13         11.918415   0.000000
     14         13.291072   0.000000
     15         13.437712   0.000000
     16         14.763929   0.000000
     17         14.857367   0.000000
     18         18.119961   0.000000
     19         18.749788   0.000000
     20         19.603234   0.000000
     21         20.103757   0.000000
     22         22.372976   0.000000
     23         22.418081   0.000000
     24         23.256027   0.000000
 
  0.1000000E+00  0.1000000E+00  0.1666667E+00  0.2000000E-01
      1         -9.992809   1.000000
      2         -8.681707   1.000000
      3         -1.108425   1.000000
      4          1.554994   1.000000
      5          1.836501   1.000000
      6          2.679107   1.000000
      7          3.529897   1.000000
      8          3.545464   1.000000
      9          5.712765   0.000000
     10          7.726626   0.000000
     11         10.279871   0.000000
     12         11.177284   0.000000
     13         12.700777   0.000000
     14         12.801117   0.000000
     15         13.115347   0.000000
     16         14.201575   0.000000
     17         15.921532   0.000000
     18         15.982178   0.000000
     19         18.604286   0.000000
     20         18.698887   0.000000
     21         20.011558   0.000000
     22         20.277786   0.000000
     23         21.127831   0.000000
     24         21.510115   0.000000
 
  0.2000000E+00  0.1000000E+00  0.1666667E+00  0.4000000E-01
      1         -9.637658   1.000000
      2         -8.488647   1.000000
      3         -0.899133   1.000000
      4          0.600356   1.000000
      5          1.100614   1.000000
      6          2.166167   1.000000
      7          3.179019   1.000000
      8          3.312174   1.000000
      9          6.453513   0.000000
     10          8.527956   0.000000
     11          9.849006   0.000000
     12         10.572352   0.000000
     13         12.115909   0.000000
     14         12.672576   0.000000
     15         13.103536   0.000000
     16         14.598571   0.000000
     17         15.326845   0.000000
     18         16.519336   0.000000
     19         18.353940   0.000000
     20         19.833214   0.000000
     21         20.477708   0.000000
     22         20.992078   0.000000
     23         21.703239   0.000000
     24         22.565910   0.000000
 
  0.3000000E+00  0.1000000E+00  0.1666667E+00  0.4000000E-01
      1         -9.189950   1.000000
      2         -8.319345   1.000000
      3         -0.989442   1.000000
      4         -0.189842   1.000000
      5          0.794040   1.000000
      6          1.699425   1.000000
      7          2.836406   1.000000
      8          2.957878   1.000000
      9          7.119394   0.000000
     10          8.773825   0.000000
     11          9.451869   0.000000
     12         10.331158   0.000000
     13         11.879142   0.000000
     14         12.710268   0.000000
     15         12.997508   0.000000
     16         14.726732   0.000000
     17         15.372791   0.000000
     18         17.275502   0.000000
     19         18.423594   0.000000
     20         19.650614   0.000000
     21         20.641321   0.000000
     22         21.612361   0.000000
     23         22.605438   0.000000
     24         23.135710   0.000000
 
  0.4000000E+00  0.1000000E+00  0.1666667E+00  0.4000000E-01
      1         -8.804569   1.000000
      2         -8.280379   1.000000
      3         -1.312875   1.000000
      4         -0.619015   1.000000
      5          0.904419   1.000000
      6          1.536814   1.000000
      7          2.485045   1.000000
      8          2.708387   1.000000
      9          7.509186   0.000000
     10          8.624966   0.000000
     11          9.430522   0.000000
     12         10.072715   0.000000
     13         11.845113   0.000000
     14         12.564331   0.000000
     15         13.513354   0.000000
     16         14.649143   0.000000
     17         15.329997   0.000000
     18         17.989573   0.000000
     19         18.607498   0.000000
     20         19.665908   0.000000
     21         20.314200   0.000000
     22         21.930712   0.000000
     23         22.831274   0.000000
     24         23.135507   0.000000
 
  0.2000000E+00  0.2000000E+00  0.1666667E+00  0.2000000E-01
      1         -9.250100   1.000000
      2         -8.329034   1.000000
      3         -0.852985   1.000000
      4         -0.041270   1.000000
      5          0.887931   1.000000
      6          1.448024   1.000000
      7          2.650204   1.000000
      8          3.021950   1.000000
      9          7.276861   0.000000
     10          9.049868   0.000000
     11          9.859068   0.000000
     12         10.200711   0.000000
     13         11.868277   0.000000
     14         12.057866   0.000000
     15         12.753234   0.000000
     16         15.271938   0.000000
     17         15.390508   0.000000
     18         16.629620   0.000000
     19         19.098630   0.000000
     20         20.216020   0.000000
     21         20.502929   0.000000
     22         20.864328   0.000000
     23         22.145069   0.000000
     24         23.413263   0.000000
 
  0.3000000E+00  0.2000000E+00  0.1666667E+00  0.4000000E-01
      1         -8.835522   1.000000
      2         -8.251504   1.000000
      3         -1.000868   1.000000
      4         -0.522292   1.000000
      5          0.751949   1.000000
      6          1.209284   1.000000
      7          2.218770   1.000000
      8          2.616854   1.000000
      9          8.028039   0.000000
     10          9.052433   0.000000
     11          9.771030   0.000000
     12         10.152380   0.000000
     13         11.584568   0.000000
     14         11.885578   0.000000
     15         13.079993   0.000000
     16         14.885282   0.000000
     17         15.552889   0.000000
     18         17.309139   0.000000
     19         19.194140   0.000000
     20         20.013385   0.000000
     21         20.857648   0.000000
     22         21.243908   0.000000
     23         22.523061   0.000000
     24         22.965992   0.000000
 
  0.4000000E+00  0.2000000E+00  0.1666667E+00  0.2000000E-01
      1         -8.604058   1.000000
      2         -8.281054   1.000000
      3         -1.134556   1.000000
      4         -0.639836   1.000000
      5          0.482169   1.000000
      6          1.505792   1.000000
      7          2.029014   1.000000
      8          2.339614   1.000000
      9          8.270011   0.000000
     10          9.331928   0.000000
     11          9.509491   0.000000
     12          9.947369   0.000000
     13         11.610069   0.000000
     14         11.804029   0.000000
     15         13.805751   0.000000
     16         14.267427   0.000000
     17         15.489803   0.000000
     18         18.144673   0.000000
     19         18.497739   0.000000
     20         20.359188   0.000000
     21         20.530396   0.000000
     22         21.285284   0.000000
     23         22.819973   0.000000
     24         23.281693   0.000000
 
  0.3000000E+00  0.3000000E+00  0.1666667E+00  0.2000000E-01
      1         -8.516246   1.000000
      2         -8.290637   1.000000
      3         -0.850779   1.000000
      4         -0.698566   1.000000
      5          0.100856   1.000000
      6          1.613245   1.000000
      7          1.771372   1.000000
      8          2.195698   1.000000
      9          8.935032   0.000000
     10          8.951992   0.000000
     11          9.726644   0.000000
     12         10.315006   0.000000
     13         11.345949   0.000000
     14         11.534698   0.000000
     15         13.727833   0.000000
     16         14.609112   0.000000
     17         14.936948   0.000000
     18         17.991015   0.000000
     19         19.117506   0.000000
     20         19.698718   0.000000
     21         21.210534   0.000000
     22         21.650845   0.000000
     23         22.724238   0.000000
     24         22.926472   0.000000
 
  0.1276756E-14  0.1276756E-14  0.3333333E+00  0.3333333E-02
      1        -10.046352   1.000000
      2         -9.247061   1.000000
      3         -0.559309   1.000000
      4          1.611101   1.000000
      5          3.251656   1.000000
      6          3.251656   1.000000
      7          3.672871   1.000000
      8          3.672871   1.000000
      9          5.518351   0.000000
     10          6.433867   0.000000
     11         10.495368   0.000000
     12         11.602646   0.000000
     13         12.831590   0.000000
     14         12.831591   0.000000
     15         13.401153   0.000000
     16         13.401154   0.000000
     17         16.355924   0.000000
     18         17.730360   0.000000
     19         17.989677   0.000000
     20         17.989677   0.000000
     21         19.106946   0.000000
     22         19.106946   0.000000
     23         21.351105   0.000000
     24         21.351105   0.000000
 
  0.1000000E+00  0.1276198E-14  0.3333333E+00  0.2000000E-01
      1         -9.951846   1.000000
      2         -9.170674   1.000000
      3         -0.519135   1.000000
      4          1.422403   1.000000
      5          2.758888   1.000000
      6          3.112550   1.000000
      7          3.402258   1.000000
      8          3.573850   1.000000
      9          5.860940   0.000000
     10          6.892276   0.000000
     11         10.371404   0.000000
     12         11.451048   0.000000
     13         12.366203   0.000000
     14         12.981903   0.000000
     15         13.013509   0.000000
     16         13.527954   0.000000
     17         16.667029   0.000000
     18         17.758944   0.000000
     19         17.779445   0.000000
     20         18.281024   0.000000
     21         19.255188   0.000000
     22         19.524498   0.000000
     23         21.079062   0.000000
     24         21.468768   0.000000
 
  0.2000000E+00  0.1273117E-14  0.3333333E+00  0.2000000E-01
      1         -9.682939   1.000000
      2         -8.961635   1.000000
      3         -0.489992   1.000000
      4          0.791962   1.000000
      5          1.910064   1.000000
      6          2.773537   1.000000
      7          3.087766   1.000000
      8          3.317800   1.000000
      9          6.410959   0.000000
     10          7.666933   0.000000
     11         10.022016   0.000000
     12         10.821062   0.000000
     13         12.070701   0.000000
     14         12.618486   0.000000
     15         13.322538   0.000000
     16         13.807296   0.000000
     17         15.822108   0.000000
     18         17.518374   0.000000
     19         17.736391   0.000000
     20         19.607658   0.000000
     21         20.062534   0.000000
     22         20.441415   0.000000
     23         21.125113   0.000000
     24         21.796172   0.000000
 
  0.3000000E+00  0.1219524E-14  0.3333333E+00  0.2000000E-01
      1         -9.290872   1.000000
      2         -8.687085   1.000000
      3         -0.764547   1.000000
      4         -0.081001   1.000000
      5          1.464117   1.000000
      6          2.391962   1.000000
      7          2.939844   1.000000