       N       E                     dE             d eps       ncg     rms          rms(c)
DAV:   1     0.312596450977E+02    0.31260E+02   -0.77761E+03  2688   0.586E+02
DAV:   2    -0.260707211942E+02   -0.57330E+02   -0.57234E+02  3960   0.947E+01
DAV:   3    -0.270827889783E+02   -0.10121E+01   -0.10121E+01  2832   0.167E+01
DAV:   4    -0.270850257499E+02   -0.22368E-02   -0.22368E-02  5232   0.809E-01
DAV:   5    -0.270850257879E+02   -0.37961E-07   -0.37961E-07  2808   0.250E-03    0.141E+01
DAV:   6    -0.232214751922E+02    0.38636E+01   -0.34475E+01  3408   0.150E+01    0.611E+00
DAV:   7    -0.230118851632E+02    0.20959E+00   -0.93925E-01  3096   0.341E+00    0.344E+00
DAV:   8    -0.229183184131E+02    0.93567E-01   -0.11228E-01  4512   0.169E+00    0.366E-01
DAV:   9    -0.229172887182E+02    0.10297E-02   -0.66511E-03  3408   0.204E-01    0.222E-01
DAV:  10    -0.229175105007E+02   -0.22178E-03   -0.76465E-04  3888   0.930E-02    0.508E-02
DAV:  11    -0.229175109575E+02   -0.45675E-06   -0.39883E-06  2280   0.100E-02
   1 F= -.22917511E+02 E0= -.22917511E+02  d E =-.229175E+02
       N       E                     dE             d eps       ncg     rms          rms(c)
DAV:   1    -0.229175084724E+02    0.20283E-05   -0.34052E-04  3720   0.750E-02    0.253E-02
DAV:   2    -0.229175010112E+02    0.74612E-05   -0.66152E-05  1728   0.236E-02
   2 F= -.22917501E+02 E0= -.22917501E+02  d E =0.994624E-05
       N       E                     dE             d eps       ncg     rms          rms(c)
DAV:   1    -0.229175117071E+02   -0.32348E-05   -0.18253E-04  2880   0.609E-02    0.144E-02
DAV:   2    -0.229175071914E+02    0.45157E-05   -0.36714E-05  1536   0.174E-02
   3 F= -.22917507E+02 E0= -.22917507E+02  d E =0.376604E-05
       N       E                     dE             d eps       ncg     rms          rms(c)
DAV:   1    -0.229175077303E+02    0.39768E-05   -0.82925E-06  1512   0.119E-02    0.399E-03
DAV:   2    -0.229175073822E+02    0.34812E-06   -0.11239E-06  1512   0.446E-03
   4 F= -.22917507E+02 E0= -.22917507E+02  d E =0.357528E-05
       N       E                     dE             d eps       ncg     rms          rms(c)
DAV:   1    -0.229175075352E+02    0.19511E-06   -0.20681E-06  1536   0.633E-03    0.220E-03
DAV:   2    -0.229175075361E+02   -0.87186E-09   -0.18826E-06  1464   0.249E-03
   5 F= -.22917508E+02 E0= -.22917508E+02  d E =0.342140E-05
       N       E                     dE             d eps       ncg     rms          rms(c)
DAV:   1    -0.229175073216E+02    0.21362E-06   -0.72310E-07  1512   0.209E-03    0.140E-03
DAV:   2    -0.229175074734E+02   -0.15184E-06   -0.17566E-06  1488   0.108E-03
   6 F= -.22917507E+02 E0= -.22917507E+02  d E =0.348405E-05
       N       E                     dE             d eps       ncg     rms          rms(c)
DAV:   1    -0.229175076158E+02   -0.29423E-06   -0.26372E-04  2736   0.710E-02    0.196E-02
DAV:   2    -0.229175035753E+02    0.40405E-05   -0.12799E-05  1488   0.896E-03
   7 F= -.22917504E+02 E0= -.22917504E+02  d E =0.389809E-05
       N       E                     dE             d eps       ncg     rms          rms(c)
DAV:   1    -0.229175075664E+02    0.49370E-07   -0.13584E-04  2616   0.509E-02    0.701E-03
DAV:   2    -0.229175070697E+02    0.49670E-06   -0.15215E-06  1440   0.579E-03
   8 F= -.22917507E+02 E0= -.22917507E+02  d E =0.403675E-06
       N       E                     dE             d eps       ncg     rms          rms(c)
DAV:   1    -0.229175071142E+02    0.45223E-06   -0.46301E-06  1440   0.998E-03    0.163E-03
DAV:   2    -0.229175070785E+02    0.35723E-07   -0.18829E-07  1440   0.238E-03
   9 F= -.22917507E+02 E0= -.22917507E+02  d E =0.394928E-06
       N       E                     dE             d eps       ncg     rms          rms(c)
DAV:   1    -0.229175073313E+02   -0.21714E-06   -0.20300E-06  1440   0.429E-03    0.137E-02
DAV:   2    -0.229175079630E+02   -0.63168E-06   -0.28411E-05  1440   0.396E-03
  10 F= -.22917508E+02 E0= -.22917508E+02  d E =-.489617E-06
       N       E                     dE             d eps       ncg     rms          rms(c)
DAV:   1    -0.229175076474E+02   -0.31606E-06   -0.51678E-07  1440   0.343E-03    0.487E-03
DAV:   2    -0.229175073514E+02    0.29603E-06   -0.16939E-07  1368   0.162E-03
  11 F= -.22917507E+02 E0= -.22917507E+02  d E =0.122033E-06
       N       E                     dE             d eps       ncg     rms          rms(c)
DAV:   1    -0.229175075983E+02    0.49123E-07   -0.37834E-06  1416   0.178E-03    0.140E-02
DAV:   2    -0.229175079386E+02   -0.34033E-06   -0.27146E-05  1368   0.396E-03
  12 F= -.22917508E+02 E0= -.22917508E+02  d E =-.465208E-06
       N       E                     dE             d eps       ncg     rms          rms(c)
DAV:   1    -0.229175075990E+02   -0.69133E-09   -0.13486E-07  1416   0.152E-03    0.451E-03
DAV:   2    -0.229175073540E+02    0.24493E-06   -0.13264E-07  1368   0.137E-03
  13 F= -.22917507E+02 E0= -.22917507E+02  d E =0.119358E-06
       N       E                     dE             d eps       ncg     rms          rms(c)
DAV:   1    -0.229175076538E+02   -0.54816E-07   -0.41728E-06  1416   0.159E-03    0.141E-02
DAV:   2    -0.229175079437E+02   -0.28990E-06   -0.26920E-05  1368   0.398E-03
  14 F= -.22917508E+02 E0= -.22917508E+02  d E =-.470287E-06
       N       E                     dE             d eps       ncg     rms          rms(c)
DAV:   1    -0.229175075900E+02    0.63818E-07   -0.12771E-07  1416   0.138E-03    0.445E-03
DAV:   2    -0.229175073558E+02    0.23417E-06   -0.12960E-07  1368   0.136E-03
  15 F= -.22917507E+02 E0= -.22917507E+02  d E =0.117602E-06
       N       E                     dE             d eps       ncg     rms          rms(c)
DAV:   1    -0.229175076734E+02   -0.83447E-07   -0.43473E-06  1416   0.164E-03    0.141E-02
DAV:   2    -0.229175079431E+02   -0.26964E-06   -0.26823E-05  1368   0.397E-03
  16 F= -.22917508E+02 E0= -.22917508E+02  d E =-.469657E-06
       N       E                     dE             d eps       ncg     rms          rms(c)
DAV:   1    -0.229175075868E+02    0.86594E-07   -0.13137E-07  1416   0.138E-03    0.443E-03
DAV:   2    -0.229175073559E+02    0.23088E-06   -0.12870E-07  1368   0.136E-03
  17 F= -.22917507E+02 E0= -.22917507E+02  d E =0.117458E-06
       N       E                     dE             d eps       ncg     rms          rms(c)
DAV:   1    -0.229175076780E+02   -0.91192E-07   -0.43874E-06  1416   0.165E-03    0.141E-02
DAV:   2    -0.229175079430E+02   -0.26502E-06   -0.26801E-05  1368   0.397E-03
  18 F= -.22917508E+02 E0= -.22917508E+02  d E =-.469637E-06
       N       E                     dE             d eps       ncg     rms          rms(c)
DAV:   1    -0.229175075862E+02    0.91863E-07   -0.13267E-07  1416   0.138E-03    0.442E-03
DAV:   2    -0.229175073561E+02    0.23010E-06   -0.12852E-07  1368   0.136E-03
  19 F= -.22917507E+02 E0= -.22917507E+02  d E =0.117351E-06
       N       E                     dE             d eps       ncg     rms          rms(c)
DAV:   1    -0.229175076791E+02   -0.92955E-07   -0.43969E-06  1416   0.165E-03    0.141E-02
DAV:   2    -0.229175079431E+02   -0.26397E-06   -0.26796E-05  1368   0.397E-03
  20 F= -.22917508E+02 E0= -.22917508E+02  d E =-.469675E-06
       N       E                     dE             d eps       ncg     rms          rms(c)
DAV:   1    -0.229175075860E+02    0.93117E-07   -0.13300E-07  1416   0.138E-03    0.442E-03
DAV:   2    -0.229175073561E+02    0.22991E-06   -0.12849E-07  1368   0.136E-03
  21 F= -.22917507E+02 E0= -.22917507E+02  d E =0.117322E-06
       N       E                     dE             d eps       ncg     rms          rms(c)
DAV:   1    -0.229175076794E+02   -0.93384E-07   -0.43990E-06  1416   0.166E-03    0.141E-02
DAV:   2    -0.229175079431E+02   -0.26371E-06   -0.26795E-05  1368   0.397E-03
  22 F= -.22917508E+02 E0= -.22917508E+02  d E =-.469684E-06
       N       E                     dE             d eps       ncg     rms          rms(c)
DAV:   1    -0.229175075860E+02    0.93405E-07   -0.13307E-07  1416   0.138E-03    0.442E-03
DAV:   2    -0.229175073561E+02    0.22987E-06   -0.12850E-07  1368   0.136E-03
  23 F= -.22917507E+02 E0= -.22917507E+02  d E =0.117306E-06
       N       E                     dE             d eps       ncg     rms          rms(c)
DAV:   1    -0.229175076794E+02   -0.93468E-07   -0.43994E-06  1416   0.166E-03    0.141E-02
DAV:   2    -0.229175079431E+02   -0.26369E-06   -0.26794E-05  1368   0.397E-03
  24 F= -.22917508E+02 E0= -.22917508E+02  d E =-.469721E-06
       N       E                     dE             d eps       ncg     rms          rms(c)
DAV:   1    -0.229175075860E+02    0.93469E-07   -0.13308E-07  1416   0.138E-03    0.442E-03
DAV:   2    -0.229175073561E+02    0.22986E-06   -0.12850E-07  1368   0.136E-03
  25 F= -.22917507E+02 E0= -.22917507E+02  d E =0.117299E-06
       N       E                     dE             d eps       ncg     rms          rms(c)
DAV:   1    -0.229175076795E+02   -0.93494E-07   -0.43996E-06  1416   0.166E-03    0.141E-02
DAV:   2    -0.229175079431E+02   -0.26365E-06   -0.26794E-05  1368   0.397E-03
  26 F= -.22917508E+02 E0= -.22917508E+02  d E =-.469709E-06
       N       E                     dE             d eps       ncg     rms          rms(c)
DAV:   1    -0.229175075860E+02    0.93500E-07   -0.13309E-07  1416   0.138E-03    0.442E-03
DAV:   2    -0.229175073561E+02    0.22986E-06   -0.12850E-07  1368   0.136E-03
  27 F= -.22917507E+02 E0= -.22917507E+02  d E =0.117306E-06
       N       E                     dE             d eps       ncg     rms          rms(c)
DAV:   1    -0.229175076795E+02   -0.93494E-07   -0.43995E-06  1416   0.165E-03    0.141E-02
DAV:   2    -0.229175079431E+02   -0.26367E-06   -0.26794E-05  1368   0.397E-03
  28 F= -.22917508E+02 E0= -.22917508E+02  d E =-.469722E-06
       N       E                     dE             d eps       ncg     rms          rms(c)
DAV:   1    -0.229175075860E+02    0.93488E-07   -0.13308E-07  1416   0.138E-03    0.442E-03
DAV:   2    -0.229175073561E+02    0.22987E-06   -0.12850E-07  1368   0.136E-03
  29 F= -.22917507E+02 E0= -.22917507E+02  d E =0.117307E-06
       N       E                     dE             d eps       ncg     rms          rms(c)
DAV:   1    -0.229175076795E+02   -0.93493E-07   -0.43994E-06  1416   0.165E-03    0.141E-02
DAV:   2    -0.229175079431E+02   -0.26367E-06   -0.26794E-05  1368   0.397E-03
  30 F= -.22917508E+02 E0= -.22917508E+02  d E =-.469730E-06
       N       E                     dE             d eps       ncg     rms          rms(c)
DAV:   1    -0.229175075860E+02    0.93492E-07   -0.13308E-07  1416   0.138E-03    0.442E-03
DAV:   2    -0.229175073561E+02    0.22987E-06   -0.12850E-07  1368   0.136E-03
  31 F= -.22917507E+02 E0= -.22917507E+02  d E =0.117301E-06
       N       E                     dE             d eps       ncg     rms          rms(c)
DAV:   1    -0.229175076795E+02   -0.93487E-07   -0.43994E-06  1416   0.165E-03    0.141E-02
DAV:   2    -0.229175079431E+02   -0.26366E-06   -0.26794E-05  1368   0.397E-03
  32 F= -.22917508E+02 E0= -.22917508E+02  d E =-.469718E-06
       N       E                     dE             d eps       ncg     rms          rms(c)
DAV:   1    -0.229175075860E+02    0.93482E-07   -0.13307E-07  1416   0.138E-03    0.442E-03
DAV:   2    -0.229175073561E+02    0.22986E-06   -0.12851E-07  1368   0.136E-03
  33 F= -.22917507E+02 E0= -.22917507E+02  d E =0.117293E-06
       N       E                     dE             d eps       ncg     rms          rms(c)
DAV:   1    -0.229175076794E+02   -0.93469E-07   -0.43993E-06  1416   0.165E-03    0.141E-02
DAV:   2    -0.229175079431E+02   -0.26369E-06   -0.26794E-05  1368   0.397E-03
  34 F= -.22917508E+02 E0= -.22917508E+02  d E =-.469734E-06
       N       E                     dE             d eps       ncg     rms          rms(c)
DAV:   1    -0.229175075860E+02    0.93467E-07   -0.13307E-07  1416   0.138E-03    0.442E-03
DAV:   2    -0.229175073561E+02    0.22987E-06   -0.12851E-07  1368   0.136E-03
  35 F= -.22917507E+02 E0= -.22917507E+02  d E =0.117292E-06
       N       E                     dE             d eps       ncg     rms          rms(c)
DAV:   1    -0.229175076795E+02   -0.93485E-07   -0.43993E-06  1416   0.165E-03    0.141E-02
DAV:   2    -0.229175079431E+02   -0.26367E-06   -0.26794E-05  1368   0.397E-03
  36 F= -.22917508E+02 E0= -.22917508E+02  d E =-.469725E-06
       N       E                     dE             d eps       ncg     rms          rms(c)
DAV:   1    -0.229175075860E+02    0.93482E-07   -0.13307E-07  1416   0.138E-03    0.442E-03
DAV:   2    -0.229175073561E+02    0.22986E-06   -0.12854E-07  1416   0.136E-03
  37 F= -.22917507E+02 E0= -.22917507E+02  d E =0.117282E-06
       N       E                     dE             d eps       ncg     rms          rms(c)
DAV:   1    -0.229175076793E+02   -0.93326E-07   -0.43978E-06  1368   0.165E-03    0.141E-02
DAV:   2    -0.229175079432E+02   -0.26389E-06   -0.26795E-05  1416   0.397E-03
  38 F= -.22917508E+02 E0= -.22917508E+02  d E =-.469797E-06
       N       E                     dE             d eps       ncg     rms          rms(c)
DAV:   1    -0.229175075860E+02    0.93330E-07   -0.13291E-07  1368   0.138E-03    0.442E-03
DAV:   2    -0.229175073561E+02    0.22987E-06   -0.12868E-07  1416   0.136E-03
  39 F= -.22917507E+02 E0= -.22917507E+02  d E =0.117293E-06
       N       E                     dE             d eps       ncg     rms          rms(c)
DAV:   1    -0.229175076792E+02   -0.93226E-07   -0.43966E-06  1368   0.165E-03    0.141E-02
DAV:   2    -0.229175079432E+02   -0.26403E-06   -0.26795E-05  1416   0.397E-03
  40 F= -.22917508E+02 E0= -.22917508E+02  d E =-.469829E-06
       N       E                     dE             d eps       ncg     rms          rms(c)
DAV:   1    -0.229175075860E+02    0.93204E-07   -0.13291E-07  1368   0.138E-03    0.442E-03
DAV:   2    -0.229175073561E+02    0.22987E-06   -0.12869E-07  1416   0.136E-03
  41 F= -.22917507E+02 E0= -.22917507E+02  d E =0.117278E-06
       N       E                     dE             d eps       ncg     rms          rms(c)
DAV:   1    -0.229175076792E+02   -0.93204E-07   -0.43965E-06  1368   0.165E-03    0.141E-02
DAV:   2    -0.229175079432E+02   -0.26402E-06   -0.26796E-05  1416   0.397E-03
  42 F= -.22917508E+02 E0= -.22917508E+02  d E =-.469820E-06
       N       E                     dE             d eps       ncg     rms          rms(c)
DAV:   1    -0.229175075860E+02    0.93200E-07   -0.13290E-07  1368   0.138E-03    0.442E-03
DAV:   2    -0.229175073561E+02    0.22989E-06   -0.12869E-07  1416   0.136E-03
  43 F= -.22917507E+02 E0= -.22917507E+02  d E =0.117294E-06
       N       E                     dE             d eps       ncg     rms          rms(c)
DAV:   1    -0.229175076792E+02   -0.93195E-07   -0.43965E-06  1368   0.165E-03    0.141E-02
DAV:   2    -0.229175079432E+02   -0.26403E-06   -0.26796E-05  1416   0.397E-03
  44 F= -.22917508E+02 E0= -.22917508E+02  d E =-.469825E-06
       N       E                     dE             d eps       ncg     rms          rms(c)
DAV:   1    -0.229175075860E+02    0.93196E-07   -0.13290E-07  1368   0.138E-03    0.442E-03
DAV:   2    -0.229175073561E+02    0.22988E-06   -0.12869E-07  1416   0.136E-03
  45 F= -.22917507E+02 E0= -.22917507E+02  d E =0.117279E-06
       N       E                     dE             d eps       ncg     rms          rms(c)
DAV:   1    -0.229175076792E+02   -0.93193E-07   -0.43965E-06  1368   0.165E-03    0.141E-02
DAV:   2    -0.229175079432E+02   -0.26403E-06   -0.26796E-05  1416   0.397E-03
  46 F= -.22917508E+02 E0= -.22917508E+02  d E =-.469819E-06
       N       E                     dE             d eps       ncg     rms          rms(c)
DAV:   1    -0.229175075860E+02    0.93205E-07   -0.13290E-07  1368   0.138E-03    0.442E-03
DAV:   2    -0.229175073561E+02    0.22988E-06   -0.12859E-07  1344   0.136E-03
  47 F= -.22917507E+02 E0= -.22917507E+02  d E =0.117297E-06
       N       E                     dE             d eps       ncg     rms          rms(c)
DAV:   1    -0.229175076795E+02   -0.93485E-07   -0.43996E-06  1344   0.166E-03    0.141E-02
DAV:   2    -0.229175079431E+02   -0.26362E-06   -0.26794E-05  1344   0.397E-03
  48 F= -.22917508E+02 E0= -.22917508E+02  d E =-.469687E-06
       N       E                     dE             d eps       ncg     rms          rms(c)
DAV:   1    -0.229175075860E+02    0.93480E-07   -0.13299E-07  1344   0.138E-03    0.442E-03
DAV:   2    -0.229175073561E+02    0.22988E-06   -0.12861E-07  1344   0.136E-03
  49 F= -.22917507E+02 E0= -.22917507E+02  d E =0.117288E-06
       N       E                     dE             d eps       ncg     rms          rms(c)
DAV:   1    -0.229175076795E+02   -0.93516E-07   -0.43998E-06  1344   0.166E-03    0.141E-02
DAV:   2    -0.229175079431E+02   -0.26358E-06   -0.26793E-05  1344   0.397E-03
  50 F= -.22917508E+02 E0= -.22917508E+02  d E =-.469684E-06
       N       E                     dE             d eps       ncg     rms          rms(c)
DAV:   1    -0.229175075860E+02    0.93519E-07   -0.13298E-07  1344   0.138E-03    0.442E-03
DAV:   2    -0.229175073561E+02    0.22989E-06   -0.12861E-07  1344   0.136E-03
  51 F= -.22917507E+02 E0= -.22917507E+02  d E =0.117301E-06
       N       E                     dE             d eps       ncg     rms          rms(c)
DAV:   1    -0.229175076795E+02   -0.93516E-07   -0.43998E-06  1344   0.166E-03    0.141E-02
DAV:   2    -0.229175079431E+02   -0.26358E-06   -0.26793E-05  1344   0.397E-03
  52 F= -.22917508E+02 E0= -.22917508E+02  d E =-.469685E-06
       N       E                     dE             d eps       ncg     rms          rms(c)
DAV:   1    -0.229175075860E+02    0.93521E-07   -0.13297E-07  1344   0.138E-03    0.442E-03
DAV:   2    -0.229175073561E+02    0.22988E-06   -0.12861E-07  1344   0.136E-03
  53 F= -.22917507E+02 E0= -.22917507E+02  d E =0.117296E-06
       N       E                     dE             d eps       ncg     rms          rms(c)
DAV:   1    -0.229175076795E+02   -0.93514E-07   -0.43998E-06  1344   0.166E-03    0.141E-02
DAV:   2    -0.229175079431E+02   -0.26359E-06   -0.26793E-05  1344   0.397E-03
  54 F= -.22917508E+02 E0= -.22917508E+02  d E =-.469687E-06
       N       E                     dE             d eps       ncg     rms          rms(c)
DAV:   1    -0.229175075860E+02    0.93509E-07   -0.13297E-07  1344   0.138E-03    0.442E-03
DAV:   2    -0.229175073561E+02    0.22987E-06   -0.12861E-07  1344   0.136E-03
  55 F= -.22917507E+02 E0= -.22917507E+02  d E =0.117282E-06
       N       E                     dE             d eps       ncg     rms          rms(c)
DAV:   1    -0.229175076795E+02   -0.93508E-07   -0.43998E-06  1344   0.166E-03    0.141E-02
DAV:   2    -0.229175079431E+02   -0.26361E-06   -0.26793E-05  1344   0.397E-03
  56 F= -.22917508E+02 E0= -.22917508E+02  d E =-.469701E-06
       N       E                     dE             d eps       ncg     rms          rms(c)
DAV:   1    -0.229175075860E+02    0.93509E-07   -0.13297E-07  1344   0.138E-03    0.442E-03
DAV:   2    -0.229175073561E+02    0.22987E-06   -0.12861E-07  1344   0.136E-03
  57 F= -.22917507E+02 E0= -.22917507E+02  d E =0.117290E-06
       N       E                     dE             d eps       ncg     rms          rms(c)
DAV:   1    -0.229175076795E+02   -0.93510E-07   -0.43998E-06  1344   0.166E-03    0.141E-02
DAV:   2    -0.229175079431E+02   -0.26359E-06   -0.26793E-05  1344   0.397E-03
  58 F= -.22917508E+02 E0= -.22917508E+02  d E =-.469686E-06
       N       E                     dE             d eps       ncg     rms          rms(c)
DAV:   1    -0.229175075860E+02    0.93506E-07   -0.13297E-07  1344   0.138E-03    0.442E-03
DAV:   2    -0.229175073561E+02    0.22988E-06   -0.12862E-07  1344   0.136E-03
  59 F= -.22917507E+02 E0= -.22917507E+02  d E =0.117292E-06
       N       E                     dE             d eps       ncg     rms          rms(c)
DAV:   1    -0.229175076795E+02   -0.93498E-07   -0.43998E-06  1344   0.166E-03    0.141E-02
DAV:   2    -0.229175079431E+02   -0.26360E-06   -0.26793E-05  1344   0.397E-03
  60 F= -.22917508E+02 E0= -.22917508E+02  d E =-.469688E-06
