 vasp.6.4.3 19Mar24 (build Sep 10 2024 18:11:34) complex                        
  
 executed on             LinuxIFC date 2025.11.13  14:39:15
 running   24 mpi-ranks, with    1 threads/rank, on    1 nodes
 distrk:  each k-point on   24 cores,    1 groups
 distr:  one band on NCORE=   1 cores,   24 groups


--------------------------------------------------------------------------------------------------------


 INCAR:
   EDIFFG = -0.001
   ENCUT = 550
   GGA = PS
   IBRION = 2
   ICHARG = 2
   ISIF = 3
   ISMEAR = -5
   ISTART = 0
   NSW = 60

 POTCAR:    PAW_PBE In 08Apr2002                  
 POTCAR:    PAW_PBE N 08Apr2002                   
 POTCAR:    PAW_PBE In 08Apr2002                  
   SHA256 =  8c9a6a0e4e38401df5534901798ac8163b467ef84c6c4c0fac2fe53924fd5a1f In/POTCAR             
   COPYR  = (c) Copyright 08Apr2002 Georg Kresse                                                    
   COPYR  = This file is part of the software VASP. Any use, copying, and all other rights are regul
   COPYR  = If you do not have a valid VASP license, you may not use, copy or distribute this file. 
   VRHFIN =In: s2p1                                                                                 
   LEXCH  = PE                                                                                      
   EATOM  =    53.7908 eV,    3.9535 Ry                                                             
                                                                                                    
   TITEL  = PAW_PBE In 08Apr2002                                                                    
   LULTRA =        F    use ultrasoft PP ?                                                          
   IUNSCR =        1    unscreen: 0-lin 1-nonlin 2-no                                               
   RPACOR =    2.400    partial core radius                                                         
   POMASS =  114.820; ZVAL   =    3.000    mass and valenz                                          
   RCORE  =    3.100    outmost cutoff radius                                                       
   RWIGS  =    3.170; RWIGS  =    1.677    wigner-seitz radius (au A)                               
   ENMAX  =   95.934; ENMIN  =   71.951 eV                                                          
   ICORE  =        3    local potential                                                             
   LCOR   =        T    correct aug charges                                                         
   LPAW   =        T    paw PP                                                                      
   EAUG   =  237.125                                                                                
   DEXC   =    0.000                                                                                
   RMAX   =    3.168    core radius for proj-oper                                                   
   RAUG   =    1.300    factor for augmentation sphere                                              
   RDEP   =    3.187    radius for radial grids                                                     
   RDEPT  =    2.711    core radius for aug-charge                                                  
                                                                                                    
   Atomic configuration                                                                             
   13 entries                                                                                       
     n  l   j            E        occ.                                                              
     1  0  0.50    -27747.9169   2.0000                                                             
     2  0  0.50     -4154.4438   2.0000                                                             
     2  1  1.50     -3728.4305   6.0000                                                             
     3  0  0.50      -788.3680   2.0000                                                             
     3  1  1.50      -648.9215   6.0000                                                             
     3  2  2.50      -432.5893  10.0000                                                             
     4  0  0.50      -119.6363   2.0000                                                             
     4  1  1.50       -78.1086   6.0000                                                             
     4  2  2.50       -18.6227  10.0000                                                             
     5  0  0.50        -8.2107   2.0000                                                             
     5  1  0.50        -2.5185   1.0000                                                             
     5  2  2.50        -1.3606   0.0000                                                             
     4  3  2.50        -2.7212   0.0000                                                             
   Description                                                                                      
     l       E           TYP  RCUT    TYP  RCUT                                                     
     0     -8.2107306     23  3.100                                                                 
     0     -6.1485975     23  3.100                                                                 
     1     -2.5184867     23  3.100                                                                 
     1      3.2427302     23  3.100                                                                 
     2     -1.3605826     23  3.100                                                                 
     3     -1.3605826     23  3.100                                                                 
  local pseudopotential read in
  partial core-charges read in
  partial kinetic energy density read in
  atomic valenz-charges read in
  non local Contribution for L=           0  read in
    real space projection operators read in
  non local Contribution for L=           0  read in
    real space projection operators read in
  non local Contribution for L=           1  read in
    real space projection operators read in
  non local Contribution for L=           1  read in
    real space projection operators read in
  non local Contribution for L=           2  read in
    real space projection operators read in
    PAW grid and wavefunctions read in
 
   number of l-projection  operators is LMAX  =           5
   number of lm-projection operators is LMMAX =          13
 
 POTCAR:    PAW_PBE N 08Apr2002                   
   SHA256 =  e053789ff3a61a86a1b75d8a110fcc91f86041011e7b0817c7c99e4e8a6349d7 N/POTCAR              
   COPYR  = (c) Copyright 08Apr2002 Georg Kresse                                                    
   COPYR  = This file is part of the software VASP. Any use, copying, and all other rights are regul
   COPYR  = If you do not have a valid VASP license, you may not use, copy or distribute this file. 
   VRHFIN =N: s2p3                                                                                  
   LEXCH  = PE                                                                                      
   EATOM  =   264.5486 eV,   19.4438 Ry                                                             
                                                                                                    
   TITEL  = PAW_PBE N 08Apr2002                                                                     
   LULTRA =        F    use ultrasoft PP ?                                                          
   IUNSCR =        1    unscreen: 0-lin 1-nonlin 2-no                                               
   RPACOR =    1.200    partial core radius                                                         
   POMASS =   14.001; ZVAL   =    5.000    mass and valenz                                          
   RCORE  =    1.500    outmost cutoff radius                                                       
   RWIGS  =    1.400; RWIGS  =    0.741    wigner-seitz radius (au A)                               
   ENMAX  =  400.000; ENMIN  =  300.000 eV                                                          
   ICORE  =        2    local potential                                                             
   LCOR   =        T    correct aug charges                                                         
   LPAW   =        T    paw PP                                                                      
   EAUG   =  627.112                                                                                
   DEXC   =    0.000                                                                                
   RMAX   =    1.529    core radius for proj-oper                                                   
   RAUG   =    1.300    factor for augmentation sphere                                              
   RDEP   =    1.514    radius for radial grids                                                     
   RDEPT  =    1.338    core radius for aug-charge                                                  
                                                                                                    
   Atomic configuration                                                                             
    4 entries                                                                                       
     n  l   j            E        occ.                                                              
     1  0  0.50      -384.7179   2.0000                                                             
     2  0  0.50       -18.5828   2.0000                                                             
     2  1  0.50        -7.0898   3.0000                                                             
     3  2  1.50        -6.8029   0.0000                                                             
   Description                                                                                      
     l       E           TYP  RCUT    TYP  RCUT                                                     
     0    -18.5828119     23  1.200                                                                 
     0    -13.5018863     23  1.200                                                                 
     1     -7.0897853     23  1.500                                                                 
     1      9.5240782     23  1.500                                                                 
     2     -6.8029130      7  1.500                                                                 
  local pseudopotential read in
  partial core-charges read in
  partial kinetic energy density read in
  atomic valenz-charges read in
  non local Contribution for L=           0  read in
    real space projection operators read in
  non local Contribution for L=           0  read in
    real space projection operators read in
  non local Contribution for L=           1  read in
    real space projection operators read in
  non local Contribution for L=           1  read in
    real space projection operators read in
    PAW grid and wavefunctions read in
 
   number of l-projection  operators is LMAX  =           4
   number of lm-projection operators is LMMAX =           8
 
 -----------------------------------------------------------------------------
|                                                                             |
|               ----> ADVICE to this user running VASP <----                  |
|                                                                             |
|     You enforced a specific xc type in the INCAR file but a different       |
|     type was found in the POTCAR file.                                      |
|     I HOPE YOU KNOW WHAT YOU ARE DOING!                                     |
|                                                                             |
 -----------------------------------------------------------------------------

  PAW_PBE In 08Apr2002                  :
 energy of atom  1       EATOM=  -53.7908
 kinetic energy error for atom=    0.0000 (will be added to EATOM!!)
  PAW_PBE N 08Apr2002                   :
 energy of atom  2       EATOM= -264.5486
 kinetic energy error for atom=    0.0116 (will be added to EATOM!!)
 
 
 POSCAR: # Compound: In2N2. Old comment: In2N2
  positions in direct lattice
  No initial velocities read in


 exchange-correlation table for PS
   RHO(1)=    0.500       N(1)  =     2000
   RHO(2)=  100.500       N(2)  =     4000
 


--------------------------------------------------------------------------------------------------------


 ion  position               nearest neighbor table
   1  0.333  0.667  0.998-   4 2.18   4 2.18   4 2.18   3 2.19   2 3.55   2 3.55   2 3.55   2 3.55
                             2 3.55   2 3.55
   2  0.667  0.333  0.498-   3 2.18   3 2.18   3 2.18   4 2.19   1 3.55   1 3.55   1 3.55   1 3.55
                             1 3.55   1 3.55
   3  0.333  0.667  0.377-   2 2.18   2 2.18   2 2.18   1 2.19
   4  0.667  0.333  0.877-   1 2.18   1 2.18   1 2.18   2 2.19
 
  LATTYP: Found a hexagonal cell.
 ALAT       =     3.5873077365
 C/A-ratio  =     1.6104706410
  
  Lattice vectors:
  
 A1 = (   1.7936538700,  -3.1066996300,   0.0000000000)
 A2 = (   1.7936538700,   3.1066996300,   0.0000000000)
 A3 = (   0.0000000000,   0.0000000000,   5.7772537900)


Analysis of symmetry for initial positions (statically):
=====================================================================
 Subroutine PRICEL returns:
 Original cell was already a primitive cell.
 

 Routine SETGRP: Setting up the symmetry group for a 
 hexagonal supercell.


 Subroutine GETGRP returns: Found 12 space group operations
 (whereof  6 operations were pure point group operations)
 out of a pool of 24 trial point group operations.


The static configuration has the point symmetry C_3v.
 The point group associated with its full space group is C_6v.


Analysis of symmetry for dynamics (positions and initial velocities):
=====================================================================
 Subroutine PRICEL returns:
 Original cell was already a primitive cell.
 

 Routine SETGRP: Setting up the symmetry group for a 
 hexagonal supercell.


 Subroutine GETGRP returns: Found 12 space group operations
 (whereof  6 operations were pure point group operations)
 out of a pool of 24 trial point group operations.


The dynamic configuration has the point symmetry C_3v.
 The point group associated with its full space group is C_6v.


 Subroutine INISYM returns: Found 12 space group operations
 (whereof  6 operations are pure point group operations),
 and found     1 'primitive' translations


----------------------------------------------------------------------------------------

                                     Primitive cell                                     

  volume of cell :      64.3857

  direct lattice vectors                    reciprocal lattice vectors
     1.793653870 -3.106699630  0.000000000     0.278760584 -0.160942498  0.000000000
     1.793653870  3.106699630  0.000000000     0.278760584  0.160942498  0.000000000
     0.000000000  0.000000000  5.777253790     0.000000000  0.000000000  0.173092621

  length of vectors
     3.587307737  3.587307737  5.777253790     0.321884996  0.321884996  0.173092621

  position of ions in fractional coordinates (direct lattice)
     0.333333330  0.666666670  0.997693140
     0.666666670  0.333333330  0.497693140
     0.333333330  0.666666670  0.377306860
     0.666666670  0.333333330  0.877306860

  ion indices of the primitive-cell ions
   primitive index   ion index
                 1           1
                 2           2
                 3           3
                 4           4

----------------------------------------------------------------------------------------

 
 
 KPOINTS: # No comment                            

Automatic generation of k-mesh.
 Grid dimensions read from file:
 generate k-points for:   10   10    6

 Generating k-lattice:

  Cartesian coordinates                     Fractional coordinates (reciprocal lattice)
     0.027876058 -0.016094250  0.000000000     0.100000000  0.000000000  0.000000000
     0.027876058  0.016094250  0.000000000     0.000000000  0.100000000  0.000000000
     0.000000000  0.000000000  0.028848770     0.000000000  0.000000000  0.166666667

  Length of vectors
     0.032188500  0.032188500  0.028848770

  Shift w.r.t. Gamma in fractional coordinates (k-lattice)
     0.000000000  0.000000000  0.000000000

 TETIRR: Found    630 inequivalent tetrahedra from     3600
 
 Subroutine IBZKPT returns following result:
 ===========================================
 
 Found     56 irreducible k-points:
 
 Following reciprocal coordinates:
            Coordinates               Weight
  0.000000  0.000000  0.000000      1.000000
  0.100000  0.000000  0.000000      6.000000
  0.200000  0.000000  0.000000      6.000000
  0.300000  0.000000  0.000000      6.000000
  0.400000  0.000000  0.000000      6.000000
  0.500000  0.000000  0.000000      3.000000
  0.100000  0.100000  0.000000      6.000000
  0.200000  0.100000  0.000000     12.000000
  0.300000  0.100000  0.000000     12.000000
  0.400000  0.100000  0.000000     12.000000
  0.200000  0.200000  0.000000      6.000000
  0.300000  0.200000  0.000000     12.000000
  0.400000  0.200000  0.000000      6.000000
  0.300000  0.300000  0.000000      6.000000
  0.000000  0.000000  0.166667      2.000000
  0.100000  0.000000  0.166667     12.000000
  0.200000  0.000000  0.166667     12.000000
  0.300000  0.000000  0.166667     12.000000
  0.400000  0.000000  0.166667     12.000000
  0.500000  0.000000  0.166667      6.000000
  0.100000  0.100000  0.166667     12.000000
  0.200000  0.100000  0.166667     24.000000
  0.300000  0.100000  0.166667     24.000000
  0.400000  0.100000  0.166667     24.000000
  0.200000  0.200000  0.166667     12.000000
  0.300000  0.200000  0.166667     24.000000
  0.400000  0.200000  0.166667     12.000000
  0.300000  0.300000  0.166667     12.000000
  0.000000  0.000000  0.333333      2.000000
  0.100000  0.000000  0.333333     12.000000
  0.200000  0.000000  0.333333     12.000000
  0.300000  0.000000  0.333333     12.000000
  0.400000  0.000000  0.333333     12.000000
  0.500000  0.000000  0.333333      6.000000
  0.100000  0.100000  0.333333     12.000000
  0.200000  0.100000  0.333333     24.000000
  0.300000  0.100000  0.333333     24.000000
  0.400000  0.100000  0.333333     24.000000
  0.200000  0.200000  0.333333     12.000000
  0.300000  0.200000  0.333333     24.000000
  0.400000  0.200000  0.333333     12.000000
  0.300000  0.300000  0.333333     12.000000
  0.000000  0.000000  0.500000      1.000000
  0.100000  0.000000  0.500000      6.000000
  0.200000  0.000000  0.500000      6.000000
  0.300000  0.000000  0.500000      6.000000
  0.400000  0.000000  0.500000      6.000000
  0.500000  0.000000  0.500000      3.000000
  0.100000  0.100000  0.500000      6.000000
  0.200000  0.100000  0.500000     12.000000
  0.300000  0.100000  0.500000     12.000000
  0.400000  0.100000  0.500000     12.000000
  0.200000  0.200000  0.500000      6.000000
  0.300000  0.200000  0.500000     12.000000
  0.400000  0.200000  0.500000      6.000000
  0.300000  0.300000  0.500000      6.000000
 
 Following cartesian coordinates:
            Coordinates               Weight
  0.000000 -0.000000  0.000000      1.000000
  0.027876 -0.016094  0.000000      6.000000
  0.055752 -0.032188  0.000000      6.000000
  0.083628 -0.048283  0.000000      6.000000
  0.111504 -0.064377  0.000000      6.000000
  0.139380 -0.080471  0.000000      3.000000
  0.055752  0.000000  0.000000      6.000000
  0.083628 -0.016094  0.000000     12.000000
  0.111504 -0.032188  0.000000     12.000000
  0.139380 -0.048283  0.000000     12.000000
  0.111504  0.000000  0.000000      6.000000
  0.139380 -0.016094  0.000000     12.000000
  0.167256 -0.032188  0.000000      6.000000
  0.167256  0.000000  0.000000      6.000000
  0.000000 -0.000000  0.028849      2.000000
  0.027876 -0.016094  0.028849     12.000000
  0.055752 -0.032188  0.028849     12.000000
  0.083628 -0.048283  0.028849     12.000000
  0.111504 -0.064377  0.028849     12.000000
  0.139380 -0.080471  0.028849      6.000000
  0.055752  0.000000  0.028849     12.000000
  0.083628 -0.016094  0.028849     24.000000
  0.111504 -0.032188  0.028849     24.000000
  0.139380 -0.048283  0.028849     24.000000
  0.111504  0.000000  0.028849     12.000000
  0.139380 -0.016094  0.028849     24.000000
  0.167256 -0.032188  0.028849     12.000000
  0.167256  0.000000  0.028849     12.000000
  0.000000 -0.000000  0.057698      2.000000
  0.027876 -0.016094  0.057698     12.000000
  0.055752 -0.032188  0.057698     12.000000
  0.083628 -0.048283  0.057698     12.000000
  0.111504 -0.064377  0.057698     12.000000
  0.139380 -0.080471  0.057698      6.000000
  0.055752  0.000000  0.057698     12.000000
  0.083628 -0.016094  0.057698     24.000000
  0.111504 -0.032188  0.057698     24.000000
  0.139380 -0.048283  0.057698     24.000000
  0.111504  0.000000  0.057698     12.000000
  0.139380 -0.016094  0.057698     24.000000
  0.167256 -0.032188  0.057698     12.000000
  0.167256  0.000000  0.057698     12.000000
  0.000000 -0.000000  0.086546      1.000000
  0.027876 -0.016094  0.086546      6.000000
  0.055752 -0.032188  0.086546      6.000000
  0.083628 -0.048283  0.086546      6.000000
  0.111504 -0.064377  0.086546      6.000000
  0.139380 -0.080471  0.086546      3.000000
  0.055752  0.000000  0.086546      6.000000
  0.083628 -0.016094  0.086546     12.000000
  0.111504 -0.032188  0.086546     12.000000
  0.139380 -0.048283  0.086546     12.000000
  0.111504  0.000000  0.086546      6.000000
  0.139380 -0.016094  0.086546     12.000000
  0.167256 -0.032188  0.086546      6.000000
  0.167256  0.000000  0.086546      6.000000
 


--------------------------------------------------------------------------------------------------------




 Dimension of arrays:
   k-points           NKPTS =     56   k-points in BZ     NKDIM =     56   number of bands    NBANDS=     24
   number of dos      NEDOS =    301   number of ions     NIONS =      4
   non local maximal  LDIM  =      5   non local SUM 2l+1 LMDIM =     13
   total plane-waves  NPLWV =  20736
   max r-space proj   IRMAX =      1   max aug-charges    IRDMAX=  36527
   dimension x,y,z NGX =    24 NGY =   24 NGZ =   36
   dimension x,y,z NGXF=    48 NGYF=   48 NGZF=   72
   support grid    NGXF=    48 NGYF=   48 NGZF=   72
   ions per type =               2   2
   NGX,Y,Z   is equivalent  to a cutoff of  11.12, 11.12, 10.36 a.u.
   NGXF,Y,Z  is equivalent  to a cutoff of  22.24, 22.24, 20.72 a.u.

 SYSTEM =  unknown system                          
 POSCAR =  # Compound: In2N2. Old comment: In2N2   

 Startparameter for this run:
   NWRITE =      2    write-flag & timer
   PREC   = normal    normal or accurate (medium, high low for compatibility)
   ISTART =      0    job   : 0-new  1-cont  2-samecut
   ICHARG =      2    charge: 1-file 2-atom 10-const
   ISPIN  =      1    spin polarized calculation?
   LNONCOLLINEAR =      F non collinear calculations
   LSORBIT =      F    spin-orbit coupling
   INIWAV =      1    electr: 0-lowe 1-rand  2-diag
   LASPH  =      F    aspherical Exc in radial PAW
 Electronic Relaxation 1
   ENCUT  =  550.0 eV  40.42 Ry    6.36 a.u.   6.86  6.86 11.05*2*pi/ulx,y,z
   ENINI  =  550.0     initial cutoff
   ENAUG  =  627.1 eV  augmentation charge cutoff
   NELM   =     60;   NELMIN=  2; NELMDL= -5     # of ELM steps 
   EDIFF  = 0.1E-03   stopping-criterion for ELM
   LREAL  =      F    real-space projection
   NLSPLINE    = F    spline interpolate recip. space projectors
   LCOMPAT=      F    compatible to vasp.4.4
   GGA_COMPAT  = T    GGA compatible to vasp.4.4-vasp.4.6
   LMAXPAW     = -100 max onsite density
   LMAXMIX     =    2 max onsite mixed and CHGCAR
   VOSKOWN=      0    Vosko Wilk Nusair interpolation
   ROPT   =    0.00000   0.00000
 Ionic relaxation
   EDIFFG = -.1E-02   stopping-criterion for IOM
   NSW    =     60    number of steps for IOM
   NBLOCK =      1;   KBLOCK =     60    inner block; outer block 
   IBRION =      2    ionic relax: 0-MD 1-quasi-New 2-CG
   NFREE  =      1    steps in history (QN), initial steepest desc. (CG)
   ISIF   =      3    stress and relaxation
   IWAVPR =     11    prediction:  0-non 1-charg 2-wave 3-comb
   ISYM   =      2    0-nonsym 1-usesym 2-fastsym
   LCORR  =      T    Harris-Foulkes like correction to forces

   POTIM  = 0.5000    time-step for ionic-motion
   TEIN   =    0.0    initial temperature
   TEBEG  =    0.0;   TEEND  =   0.0 temperature during run
   SMASS  =  -3.00    Nose mass-parameter (am)
   estimated Nose-frequenzy (Omega)   =  0.10E-29 period in steps = 0.13E+47 mass=  -0.294E-27a.u.
   SCALEE = 1.0000    scale energy and forces
   NPACO  =    256;   APACO  = 10.0  distance and # of slots for P.C.
   PSTRESS=    0.0 pullay stress

  Mass of Ions in am
   POMASS = 114.82 14.00
  Ionic Valenz
   ZVAL   =   3.00  5.00
  Atomic Wigner-Seitz radii
   RWIGS  =  -1.00 -1.00
  virtual crystal weights 
   VCA    =   1.00  1.00
   NELECT =      16.0000    total number of electrons
   NUPDOWN=      -1.0000    fix difference up-down

 DOS related values:
   EMIN   =  10.00;   EMAX   =-10.00  energy-range for DOS
   EFERMI =   0.00;   METHOD = LEGACY      
   ISMEAR =    -5;   SIGMA  =   0.20  broadening in eV -4-tet -1-fermi 0-gaus

 Electronic relaxation 2 (details)
   IALGO  =     38    algorithm
   LDIAG  =      T    sub-space diagonalisation (order eigenvalues)
   LSUBROT=      F    optimize rotation matrix (better conditioning)
   TURBO    =      0    0=normal 1=particle mesh
   IRESTART =      0    0=no restart 2=restart with 2 vectors
   NREBOOT  =      0    no. of reboots
   NMIN     =      0    reboot dimension
   EREF     =   0.00    reference energy to select bands
   IMIX   =      4    mixing-type and parameters
     AMIX     =   0.40;   BMIX     =  1.00
     AMIX_MAG =   1.60;   BMIX_MAG =  1.00
     AMIN     =   0.10
     WC   =   100.;   INIMIX=   1;  MIXPRE=   1;  MAXMIX= -45

 Intra band minimization:
   WEIMIN = 0.0010     energy-eigenvalue tresh-hold
   EBREAK =  0.10E-05  absolut break condition
   DEPER  =   0.30     relativ break condition  

   TIME   =   0.40     timestep for ELM

  volume/ion in A,a.u.               =      16.10       108.62
  Fermi-wavevector in a.u.,A,eV,Ry     =   1.029244  1.944989 14.413242  1.059343
  Thomas-Fermi vector in A             =   2.163282
 
 Write flags
   LWAVE        =      T    write WAVECAR
   LDOWNSAMPLE  =      F    k-point downsampling of WAVECAR
   LCHARG       =      T    write CHGCAR
   LVTOT        =      F    write LOCPOT, total local potential
   LVHAR        =      F    write LOCPOT, Hartree potential only
   WRT_POTENTIAL= false  ! write potential to hdf5 file
   LELF         =      F    write electronic localiz. function (ELF)
   LORBIT       =      0    0 simple, 1 ext, 2 COOP (PROOUT), +10 PAW based schemes


 Dipole corrections
   LMONO      =      F    monopole corrections only (constant potential shift)
   LDIPOL     =      F    correct potential (dipole corrections)
   IDIPOL     =      0    1-x, 2-y, 3-z, 4-all directions 
   EPSILON    =  1.0000000 bulk dielectric constant
   LVACPOTAV  =      F  vacuum potentials using an averaging scheme for the charge density
   VACPOTFLAT =  0.1000000 required flatness to determine vacuum potential
 Exchange correlation treatment:
   GGA     = PS    functional components
   XC_C    = 1    coefficients multiplying the functional components
   LIBXC   =     F    Libxc                    
   VOSKOWN =     0    Vosko Wilk Nusair interpolation
   LHFCALC =     F    Hartree Fock is set to
   LHFONE  =     F    Hartree Fock one center treatment
   AEXX    =    0.0000 exact exchange contribution

 Parameters of functionals:
   PS:
     No parameter
 
 Van der Waals corrections
   IVDW    =     0    specifies the selected vdW correction

 Linear response parameters
   LEPSILON=     F    determine dielectric tensor
   LRPA    =     F    only Hartree local field effects (RPA)
   LNABLA  =     F    use nabla operator in PAW spheres
   LVEL    =     F    velocity operator in full k-point grid
   CSHIFT  =0.1000    complex shift for real part using Kramers Kronig
   OMEGAMAX=  -1.0    maximum frequency
   DEG_THRESHOLD= 0.2000000E-02 threshold for treating states as degnerate
   RTIME   =   -0.100 relaxation time in fs
  (WPLASMAI=    0.000 imaginary part of plasma frequency in eV, 0.658/RTIME)
   DFIELD  = 0.0000000 0.0000000 0.0000000 field for delta impulse in time
 
  Optional k-point grid parameters
   LKPOINTS_OPT  =     F    use optional k-point grid
   KPOINTS_OPT_MODE=     1    mode for optional k-point grid
 
 Orbital magnetization related:
   ORBITALMAG=     F  switch on orbital magnetization
   LCHIMAG   =     F  perturbation theory with respect to B field
   DQ        =  0.001000  dq finite difference perturbation B field
   LLRAUG    =     F  two centre corrections for induced B field
   LBONE     =     F  B-component reconstruction in AE one-centre
   LVGVCALC  =     T  calculate vGv susceptibility
   LVGVAPPL  =     F  apply vGv susceptibility instead of pGv for G=0

 Random number generation:
   RANDOM_GENERATOR = DEFAULT
   PCG_SEED         = not used


--------------------------------------------------------------------------------------------------------


 conjugate gradient relaxation of ions
 charge density and potential will be updated during run
 non-spin polarized calculation
 Variant of blocked Davidson
 Davidson routine will perform the subspace rotation
 perform sub-space diagonalisation
    after iterative eigenvector-optimisation
 modified Broyden-mixing scheme, WC =      100.0
 initial mixing is a Kerker type mixing with AMIX =  0.4000 and BMIX =      1.0000
 Hartree-type preconditioning will be used
 using additional bands           16
 reciprocal scheme for non local part
 use partial core corrections
 calculate Harris-corrections to forces 
   (improved forces if not selfconsistent)
 use gradient corrections 
 use of overlap-Matrix (Vanderbilt PP)
 Fermi weights with tetrahedron method with Bloechl corrections


--------------------------------------------------------------------------------------------------------


  energy-cutoff  :      550.00
  volume of cell :       64.39
      direct lattice vectors                 reciprocal lattice vectors
     1.793653870 -3.106699630  0.000000000     0.278760584 -0.160942498  0.000000000
     1.793653870  3.106699630  0.000000000     0.278760584  0.160942498  0.000000000
     0.000000000  0.000000000  5.777253790     0.000000000  0.000000000  0.173092621

  length of vectors
     3.587307737  3.587307737  5.777253790     0.321884996  0.321884996  0.173092621


 
 k-points in units of 2pi/SCALE and weight: # No comment                            
   0.00000000  0.00000000  0.00000000       0.002
   0.02787606 -0.01609425  0.00000000       0.010
   0.05575212 -0.03218850  0.00000000       0.010
   0.08362818 -0.04828275  0.00000000       0.010
   0.11150423 -0.06437700  0.00000000       0.010
   0.13938029 -0.08047125  0.00000000       0.005
   0.05575212  0.00000000  0.00000000       0.010
   0.08362818 -0.01609425  0.00000000       0.020
   0.11150423 -0.03218850  0.00000000       0.020
   0.13938029 -0.04828275  0.00000000       0.020
   0.11150423  0.00000000  0.00000000       0.010
   0.13938029 -0.01609425  0.00000000       0.020
   0.16725635 -0.03218850  0.00000000       0.010
   0.16725635  0.00000000  0.00000000       0.010
   0.00000000  0.00000000  0.02884877       0.003
   0.02787606 -0.01609425  0.02884877       0.020
   0.05575212 -0.03218850  0.02884877       0.020
   0.08362818 -0.04828275  0.02884877       0.020
   0.11150423 -0.06437700  0.02884877       0.020
   0.13938029 -0.08047125  0.02884877       0.010
   0.05575212  0.00000000  0.02884877       0.020
   0.08362818 -0.01609425  0.02884877       0.040
   0.11150423 -0.03218850  0.02884877       0.040
   0.13938029 -0.04828275  0.02884877       0.040
   0.11150423  0.00000000  0.02884877       0.020
   0.13938029 -0.01609425  0.02884877       0.040
   0.16725635 -0.03218850  0.02884877       0.020
   0.16725635  0.00000000  0.02884877       0.020
   0.00000000  0.00000000  0.05769754       0.003
   0.02787606 -0.01609425  0.05769754       0.020
   0.05575212 -0.03218850  0.05769754       0.020
   0.08362818 -0.04828275  0.05769754       0.020
   0.11150423 -0.06437700  0.05769754       0.020
   0.13938029 -0.08047125  0.05769754       0.010
   0.05575212  0.00000000  0.05769754       0.020
   0.08362818 -0.01609425  0.05769754       0.040
   0.11150423 -0.03218850  0.05769754       0.040
   0.13938029 -0.04828275  0.05769754       0.040
   0.11150423  0.00000000  0.05769754       0.020
   0.13938029 -0.01609425  0.05769754       0.040
   0.16725635 -0.03218850  0.05769754       0.020
   0.16725635  0.00000000  0.05769754       0.020
   0.00000000  0.00000000  0.08654631       0.002
   0.02787606 -0.01609425  0.08654631       0.010
   0.05575212 -0.03218850  0.08654631       0.010
   0.08362818 -0.04828275  0.08654631       0.010
   0.11150423 -0.06437700  0.08654631       0.010
   0.13938029 -0.08047125  0.08654631       0.005
   0.05575212  0.00000000  0.08654631       0.010
   0.08362818 -0.01609425  0.08654631       0.020
   0.11150423 -0.03218850  0.08654631       0.020
   0.13938029 -0.04828275  0.08654631       0.020
   0.11150423  0.00000000  0.08654631       0.010
   0.13938029 -0.01609425  0.08654631       0.020
   0.16725635 -0.03218850  0.08654631       0.010
   0.16725635  0.00000000  0.08654631       0.010
 
 k-points in reciprocal lattice and weights: # No comment                            
   0.00000000  0.00000000  0.00000000       0.002
   0.10000000  0.00000000  0.00000000       0.010
   0.20000000  0.00000000  0.00000000       0.010
   0.30000000  0.00000000  0.00000000       0.010
   0.40000000  0.00000000  0.00000000       0.010
   0.50000000  0.00000000  0.00000000       0.005
   0.10000000  0.10000000  0.00000000       0.010
   0.20000000  0.10000000  0.00000000       0.020
   0.30000000  0.10000000  0.00000000       0.020
   0.40000000  0.10000000  0.00000000       0.020
   0.20000000  0.20000000  0.00000000       0.010
   0.30000000  0.20000000  0.00000000       0.020
   0.40000000  0.20000000  0.00000000       0.010
   0.30000000  0.30000000  0.00000000       0.010
   0.00000000  0.00000000  0.16666667       0.003
   0.10000000  0.00000000  0.16666667       0.020
   0.20000000  0.00000000  0.16666667       0.020
   0.30000000  0.00000000  0.16666667       0.020
   0.40000000  0.00000000  0.16666667       0.020
   0.50000000  0.00000000  0.16666667       0.010
   0.10000000  0.10000000  0.16666667       0.020
   0.20000000  0.10000000  0.16666667       0.040
   0.30000000  0.10000000  0.16666667       0.040
   0.40000000  0.10000000  0.16666667       0.040
   0.20000000  0.20000000  0.16666667       0.020
   0.30000000  0.20000000  0.16666667       0.040
   0.40000000  0.20000000  0.16666667       0.020
   0.30000000  0.30000000  0.16666667       0.020
   0.00000000  0.00000000  0.33333333       0.003
   0.10000000  0.00000000  0.33333333       0.020
   0.20000000  0.00000000  0.33333333       0.020
   0.30000000  0.00000000  0.33333333       0.020
   0.40000000  0.00000000  0.33333333       0.020
   0.50000000  0.00000000  0.33333333       0.010
   0.10000000  0.10000000  0.33333333       0.020
   0.20000000  0.10000000  0.33333333       0.040
   0.30000000  0.10000000  0.33333333       0.040
   0.40000000  0.10000000  0.33333333       0.040
   0.20000000  0.20000000  0.33333333       0.020
   0.30000000  0.20000000  0.33333333       0.040
   0.40000000  0.20000000  0.33333333       0.020
   0.30000000  0.30000000  0.33333333       0.020
   0.00000000  0.00000000  0.50000000       0.002
   0.10000000  0.00000000  0.50000000       0.010
   0.20000000  0.00000000  0.50000000       0.010
   0.30000000  0.00000000  0.50000000       0.010
   0.40000000  0.00000000  0.50000000       0.010
   0.50000000  0.00000000  0.50000000       0.005
   0.10000000  0.10000000  0.50000000       0.010
   0.20000000  0.10000000  0.50000000       0.020
   0.30000000  0.10000000  0.50000000       0.020
   0.40000000  0.10000000  0.50000000       0.020
   0.20000000  0.20000000  0.50000000       0.010
   0.30000000  0.20000000  0.50000000       0.020
   0.40000000  0.20000000  0.50000000       0.010
   0.30000000  0.30000000  0.50000000       0.010
 
 position of ions in fractional coordinates (direct lattice) 
   0.33333333  0.66666667  0.99769314
   0.66666667  0.33333333  0.49769314
   0.33333333  0.66666667  0.37730686
   0.66666667  0.33333333  0.87730686
 
 position of ions in cartesian coordinates  (Angst):
   1.79365387  1.03556656  5.76392647
   1.79365387 -1.03556656  2.87529958
   1.79365387  1.03556656  2.17979749
   1.79365387 -1.03556656  5.06842438
 


--------------------------------------------------------------------------------------------------------


 k-point     1 :   0.0000 0.0000 0.0000  plane waves:    1859
 k-point     2 :   0.1000 0.0000 0.0000  plane waves:    1858
 k-point     3 :   0.2000 0.0000 0.0000  plane waves:    1874
 k-point     4 :   0.3000 0.0000 0.0000  plane waves:    1882
 k-point     5 :   0.4000 0.0000 0.0000  plane waves:    1882
 k-point     6 :   0.5000 0.0000 0.0000  plane waves:    1906
 k-point     7 :   0.1000 0.1000 0.0000  plane waves:    1863
 k-point     8 :   0.2000 0.1000 0.0000  plane waves:    1879
 k-point     9 :   0.3000 0.1000 0.0000  plane waves:    1891
 k-point    10 :   0.4000 0.1000 0.0000  plane waves:    1889
 k-point    11 :   0.2000 0.2000 0.0000  plane waves:    1887
 k-point    12 :   0.3000 0.2000 0.0000  plane waves:    1893
 k-point    13 :   0.4000 0.2000 0.0000  plane waves:    1889
 k-point    14 :   0.3000 0.3000 0.0000  plane waves:    1899
 k-point    15 :   0.0000 0.0000 0.1667  plane waves:    1876
 k-point    16 :   0.1000 0.0000 0.1667  plane waves:    1870
 k-point    17 :   0.2000 0.0000 0.1667  plane waves:    1884
 k-point    18 :   0.3000 0.0000 0.1667  plane waves:    1887
 k-point    19 :   0.4000 0.0000 0.1667  plane waves:    1890
 k-point    20 :   0.5000 0.0000 0.1667  plane waves:    1904
 k-point    21 :   0.1000 0.1000 0.1667  plane waves:    1875
 k-point    22 :   0.2000 0.1000 0.1667  plane waves:    1880
 k-point    23 :   0.3000 0.1000 0.1667  plane waves:    1885
 k-point    24 :   0.4000 0.1000 0.1667  plane waves:    1891
 k-point    25 :   0.2000 0.2000 0.1667  plane waves:    1887
 k-point    26 :   0.3000 0.2000 0.1667  plane waves:    1885
 k-point    27 :   0.4000 0.2000 0.1667  plane waves:    1887
 k-point    28 :   0.3000 0.3000 0.1667  plane waves:    1897
 k-point    29 :   0.0000 0.0000 0.3333  plane waves:    1882
 k-point    30 :   0.1000 0.0000 0.3333  plane waves:    1872
 k-point    31 :   0.2000 0.0000 0.3333  plane waves:    1883
 k-point    32 :   0.3000 0.0000 0.3333  plane waves:    1889
 k-point    33 :   0.4000 0.0000 0.3333  plane waves:    1893
 k-point    34 :   0.5000 0.0000 0.3333  plane waves:    1882
 k-point    35 :   0.1000 0.1000 0.3333  plane waves:    1886
 k-point    36 :   0.2000 0.1000 0.3333  plane waves:    1888
 k-point    37 :   0.3000 0.1000 0.3333  plane waves:    1890
 k-point    38 :   0.4000 0.1000 0.3333  plane waves:    1890
 k-point    39 :   0.2000 0.2000 0.3333  plane waves:    1888
 k-point    40 :   0.3000 0.2000 0.3333  plane waves:    1886
 k-point    41 :   0.4000 0.2000 0.3333  plane waves:    1891
 k-point    42 :   0.3000 0.3000 0.3333  plane waves:    1893
 k-point    43 :   0.0000 0.0000 0.5000  plane waves:    1894
 k-point    44 :   0.1000 0.0000 0.5000  plane waves:    1878
 k-point    45 :   0.2000 0.0000 0.5000  plane waves:    1882
 k-point    46 :   0.3000 0.0000 0.5000  plane waves:    1886
 k-point    47 :   0.4000 0.0000 0.5000  plane waves:    1886
 k-point    48 :   0.5000 0.0000 0.5000  plane waves:    1892
 k-point    49 :   0.1000 0.1000 0.5000  plane waves:    1890
 k-point    50 :   0.2000 0.1000 0.5000  plane waves:    1886
 k-point    51 :   0.3000 0.1000 0.5000  plane waves:    1894
 k-point    52 :   0.4000 0.1000 0.5000  plane waves:    1880
 k-point    53 :   0.2000 0.2000 0.5000  plane waves:    1894
 k-point    54 :   0.3000 0.2000 0.5000  plane waves:    1890
 k-point    55 :   0.4000 0.2000 0.5000  plane waves:    1892
 k-point    56 :   0.3000 0.3000 0.5000  plane waves:    1884

 maximum and minimum number of plane-waves per node :      1906     1858

 maximum number of plane-waves:      1906
 maximum index in each direction: 
   IXMAX=    6   IYMAX=    6   IZMAX=   11
   IXMIN=   -7   IYMIN=   -7   IZMIN=  -11


 serial   3D FFT for wavefunctions
 parallel 3D FFT for charge:
    minimum data exchange during FFTs selected (reduces bandwidth)


 total amount of memory used by VASP MPI-rank0    55847. kBytes
=======================================================================

   base      :      30000. kBytes
   nonl-proj :      22487. kBytes
   fftplans  :        332. kBytes
   grid      :       1233. kBytes
   one-center:         32. kBytes
   wavefun   :       1763. kBytes
 
     INWAV:  cpu time      0.0000: real time      0.0007
 Broyden mixing: mesh for mixing (old mesh)
   NGX = 13   NGY = 13   NGZ = 23
  (NGX  = 48   NGY  = 48   NGZ  = 72)
  gives a total of   3887 points

 initial charge density was supplied:
 charge density of overlapping atoms calculated
 number of electron      16.0000000 magnetization 
 keeping initial charge density in first step


--------------------------------------------------------------------------------------------------------


 Maximum index for augmentation-charges         1614 (set IRDMAX)


--------------------------------------------------------------------------------------------------------


 First call to EWALD:  gamma=   0.442
 Maximum number of real-space cells 3x 3x 2
 Maximum number of reciprocal cells 3x 3x 4

    FEWALD:  cpu time      0.0006: real time      0.0006


--------------------------------------- Ionic step        1  -------------------------------------------




--------------------------------------- Iteration      1(   1)  ---------------------------------------


    POTLOK:  cpu time      0.0047: real time      0.0059
    SETDIJ:  cpu time      0.0023: real time      0.0023
     EDDAV:  cpu time      0.2668: real time      0.2690
 BZINTS: Fermi energy:    8.437434;   16.000000 electrons
         Band energy: 0.445162E+01;  BLOECHL correction:   -0.064790
       DOS:  cpu time      0.0055: real time      0.0055
    --------------------------------------------
      LOOP:  cpu time      0.2792: real time      0.2828

 eigenvalue-minimisations  :  2688
 total energy-change (2. order) : 0.3125965E+02  (-0.7776133E+03)
 number of electron      16.0000000 magnetization 
 augmentation part       16.0000000 magnetization 

 Free energy of the ion-electron system (eV)
  ---------------------------------------------------
  alpha Z        PSCENC =        10.18745171
  Ewald energy   TEWEN  =      -512.35975571
  -Hartree energ DENC   =      -149.48241253
  -exchange      EXHF   =         0.00000000
  -V(xc)+E(xc)   XCENC  =       -70.98574617
  PAW double counting   =       595.79953663     -480.38781515
  entropy T*S    EENTRO =         0.00000000
  eigenvalues    EBANDS =         4.45161536
  atomic energy  EATOM  =       634.03677096
  Solvation  Ediel_sol  =         0.00000000
  ---------------------------------------------------
  free energy    TOTEN  =        31.25964510 eV

  energy without entropy =       31.25964510  energy(sigma->0) =       31.25964510


--------------------------------------------------------------------------------------------------------




--------------------------------------- Iteration      1(   2)  ---------------------------------------


     EDDAV:  cpu time      0.4308: real time      0.4395
 BZINTS: Fermi energy:    1.354538;   16.000000 electrons
         Band energy:-0.528788E+02;  BLOECHL correction:    0.000000
       DOS:  cpu time      0.0030: real time      0.0031
    --------------------------------------------
      LOOP:  cpu time      0.4338: real time      0.4426

 eigenvalue-minimisations  :  3960
 total energy-change (2. order) :-0.5733037E+02  (-0.5723422E+02)
 number of electron      16.0000000 magnetization 
 augmentation part       16.0000000 magnetization 

 Free energy of the ion-electron system (eV)
  ---------------------------------------------------
  alpha Z        PSCENC =        10.18745171
  Ewald energy   TEWEN  =      -512.35975571
  -Hartree energ DENC   =      -149.48241253
  -exchange      EXHF   =         0.00000000
  -V(xc)+E(xc)   XCENC  =       -70.98574617
  PAW double counting   =       595.79953663     -480.38781515
  entropy T*S    EENTRO =         0.00000000
  eigenvalues    EBANDS =       -52.87875093
  atomic energy  EATOM  =       634.03677096
  Solvation  Ediel_sol  =         0.00000000
  ---------------------------------------------------
  free energy    TOTEN  =       -26.07072119 eV

  energy without entropy =      -26.07072119  energy(sigma->0) =      -26.07072119


--------------------------------------------------------------------------------------------------------




--------------------------------------- Iteration      1(   3)  ---------------------------------------


     EDDAV:  cpu time      0.2881: real time      0.2914
 BZINTS: Fermi energy:    1.237825;   16.000000 electrons
         Band energy:-0.538908E+02;  BLOECHL correction:    0.000000
       DOS:  cpu time      0.0031: real time      0.0031
    --------------------------------------------
      LOOP:  cpu time      0.2912: real time      0.2945

 eigenvalue-minimisations  :  2832
 total energy-change (2. order) :-0.1012068E+01  (-0.1012068E+01)
 number of electron      16.0000000 magnetization 
 augmentation part       16.0000000 magnetization 

 Free energy of the ion-electron system (eV)
  ---------------------------------------------------
  alpha Z        PSCENC =        10.18745171
  Ewald energy   TEWEN  =      -512.35975571
  -Hartree energ DENC   =      -149.48241253
  -exchange      EXHF   =         0.00000000
  -V(xc)+E(xc)   XCENC  =       -70.98574617
  PAW double counting   =       595.79953663     -480.38781515
  entropy T*S    EENTRO =         0.00000000
  eigenvalues    EBANDS =       -53.89081871
  atomic energy  EATOM  =       634.03677096
  Solvation  Ediel_sol  =         0.00000000
  ---------------------------------------------------
  free energy    TOTEN  =       -27.08278898 eV

  energy without entropy =      -27.08278898  energy(sigma->0) =      -27.08278898


--------------------------------------------------------------------------------------------------------




--------------------------------------- Iteration      1(   4)  ---------------------------------------


     EDDAV:  cpu time      0.6633: real time      0.6716
 BZINTS: Fermi energy:    1.200301;   16.000000 electrons
         Band energy:-0.538931E+02;  BLOECHL correction:    0.000000
       DOS:  cpu time      0.0030: real time      0.0031
    --------------------------------------------
      LOOP:  cpu time      0.6664: real time      0.6747

 eigenvalue-minimisations  :  5232
 total energy-change (2. order) :-0.2236772E-02  (-0.2236772E-02)
 number of electron      16.0000000 magnetization 
 augmentation part       16.0000000 magnetization 

 Free energy of the ion-electron system (eV)
  ---------------------------------------------------
  alpha Z        PSCENC =        10.18745171
  Ewald energy   TEWEN  =      -512.35975571
  -Hartree energ DENC   =      -149.48241253
  -exchange      EXHF   =         0.00000000
  -V(xc)+E(xc)   XCENC  =       -70.98574617
  PAW double counting   =       595.79953663     -480.38781515
  entropy T*S    EENTRO =         0.00000000
  eigenvalues    EBANDS =       -53.89305548
  atomic energy  EATOM  =       634.03677096
  Solvation  Ediel_sol  =         0.00000000
  ---------------------------------------------------
  free energy    TOTEN  =       -27.08502575 eV

  energy without entropy =      -27.08502575  energy(sigma->0) =      -27.08502575


--------------------------------------------------------------------------------------------------------




--------------------------------------- Iteration      1(   5)  ---------------------------------------


     EDDAV:  cpu time      0.2802: real time      0.2891
 BZINTS: Fermi energy:    1.196476;   16.000000 electrons
         Band energy:-0.538931E+02;  BLOECHL correction:    0.000000
       DOS:  cpu time      0.0030: real time      0.0030
    CHARGE:  cpu time      0.0110: real time      0.0111
    MIXING:  cpu time      0.0004: real time      0.0004
    --------------------------------------------
      LOOP:  cpu time      0.2947: real time      0.3036

 eigenvalue-minimisations  :  2808
 total energy-change (2. order) :-0.3796072E-07  (-0.3796061E-07)
 number of electron      15.9999995 magnetization 
 augmentation part       -0.2233783 magnetization 

 Broyden mixing:
  rms(total) = 0.14107E+01    rms(broyden)= 0.14106E+01
  rms(prec ) = 0.24184E+01
  weight for this iteration     100.00

 Free energy of the ion-electron system (eV)
  ---------------------------------------------------
  alpha Z        PSCENC =        10.18745171
  Ewald energy   TEWEN  =      -512.35975571
  -Hartree energ DENC   =      -149.48241253
  -exchange      EXHF   =         0.00000000
  -V(xc)+E(xc)   XCENC  =       -70.98574617
  PAW double counting   =       595.79953663     -480.38781515
  entropy T*S    EENTRO =         0.00000000
  eigenvalues    EBANDS =       -53.89305552
  atomic energy  EATOM  =       634.03677096
  Solvation  Ediel_sol  =         0.00000000
  ---------------------------------------------------
  free energy    TOTEN  =       -27.08502579 eV

  energy without entropy =      -27.08502579  energy(sigma->0) =      -27.08502579


--------------------------------------------------------------------------------------------------------




--------------------------------------- Iteration      1(   6)  ---------------------------------------


    POTLOK:  cpu time      0.0048: real time      0.0072
    SETDIJ:  cpu time      0.0019: real time      0.0019
     EDDAV:  cpu time      0.3553: real time      0.3579
 BZINTS: Fermi energy:    4.040178;   16.000000 electrons
         Band energy:-0.186654E+02;  BLOECHL correction:   -0.000000
       DOS:  cpu time      0.0039: real time      0.0040
    CHARGE:  cpu time      0.0089: real time      0.0089
    MIXING:  cpu time      0.0004: real time      0.0004
    --------------------------------------------
      LOOP:  cpu time      0.3752: real time      0.3803

 eigenvalue-minimisations  :  3408
 total energy-change (2. order) : 0.3863551E+01  (-0.3447471E+01)
 number of electron      15.9999997 magnetization 
 augmentation part       -0.8780115 magnetization 

 Broyden mixing:
  rms(total) = 0.61101E+00    rms(broyden)= 0.61084E+00
  rms(prec ) = 0.74999E+00
  weight for this iteration     100.00

 eigenvalues of (default mixing * dielectric matrix)
  average eigenvalue GAMMA=   0.9240
  0.9240

 Free energy of the ion-electron system (eV)
  ---------------------------------------------------
  alpha Z        PSCENC =        10.18745171
  Ewald energy   TEWEN  =      -512.35975571
  -Hartree energ DENC   =      -183.05536313
  -exchange      EXHF   =         0.00000000
  -V(xc)+E(xc)   XCENC  =       -68.10719444
  PAW double counting   =       932.69868687     -817.95668195
  entropy T*S    EENTRO =         0.00000000
  eigenvalues    EBANDS =       -18.66538951
  atomic energy  EATOM  =       634.03677096
  Solvation  Ediel_sol  =         0.00000000
  ---------------------------------------------------
  free energy    TOTEN  =       -23.22147519 eV

  energy without entropy =      -23.22147519  energy(sigma->0) =      -23.22147519


--------------------------------------------------------------------------------------------------------




--------------------------------------- Iteration      1(   7)  ---------------------------------------


    POTLOK:  cpu time      0.0047: real time      0.0072
    SETDIJ:  cpu time      0.0019: real time      0.0019
     EDDAV:  cpu time      0.3194: real time      0.3216
 BZINTS: Fermi energy:    3.714896;   16.000000 electrons
         Band energy:-0.221713E+02;  BLOECHL correction:   -0.000000
       DOS:  cpu time      0.0030: real time      0.0030
    CHARGE:  cpu time      0.0087: real time      0.0087
    MIXING:  cpu time      0.0004: real time      0.0004
    --------------------------------------------
      LOOP:  cpu time      0.3381: real time      0.3428

 eigenvalue-minimisations  :  3096
 total energy-change (2. order) : 0.2095900E+00  (-0.9392494E-01)
 number of electron      15.9999997 magnetization 
 augmentation part       -0.7928675 magnetization 

 Broyden mixing:
  rms(total) = 0.34428E+00    rms(broyden)= 0.34428E+00
  rms(prec ) = 0.41287E+00
  weight for this iteration     100.00

 eigenvalues of (default mixing * dielectric matrix)
  average eigenvalue GAMMA=   1.5393
  0.8822  2.1964

 Free energy of the ion-electron system (eV)
  ---------------------------------------------------
  alpha Z        PSCENC =        10.18745171
  Ewald energy   TEWEN  =      -512.35975571
  -Hartree energ DENC   =      -178.87503343
  -exchange      EXHF   =         0.00000000
  -V(xc)+E(xc)   XCENC  =       -68.37610747
  PAW double counting   =      1145.21957445    -1030.67352486
  entropy T*S    EENTRO =         0.00000000
  eigenvalues    EBANDS =       -22.17126082
  atomic energy  EATOM  =       634.03677096
  Solvation  Ediel_sol  =         0.00000000
  ---------------------------------------------------
  free energy    TOTEN  =       -23.01188516 eV

  energy without entropy =      -23.01188516  energy(sigma->0) =      -23.01188516


--------------------------------------------------------------------------------------------------------




--------------------------------------- Iteration      1(   8)  ---------------------------------------


    POTLOK:  cpu time      0.0041: real time      0.0096
    SETDIJ:  cpu time      0.0019: real time      0.0019
     EDDAV:  cpu time      0.5335: real time      0.5371
 BZINTS: Fermi energy:    3.841891;   16.000000 electrons
         Band energy:-0.201440E+02;  BLOECHL correction:   -0.000000
       DOS:  cpu time      0.0033: real time      0.0033
    CHARGE:  cpu time      0.0087: real time      0.0088
    MIXING:  cpu time      0.0004: real time      0.0004
    --------------------------------------------
      LOOP:  cpu time      0.5518: real time      0.5610

 eigenvalue-minimisations  :  4512
 total energy-change (2. order) : 0.9356675E-01  (-0.1122797E-01)
 number of electron      15.9999997 magnetization 
 augmentation part       -0.8029161 magnetization 

 Broyden mixing:
  rms(total) = 0.36575E-01    rms(broyden)= 0.36570E-01
  rms(prec ) = 0.52019E-01
  weight for this iteration     100.00

 eigenvalues of (default mixing * dielectric matrix)
  average eigenvalue GAMMA=   1.3353
  2.2875  0.8593  0.8593

 Free energy of the ion-electron system (eV)
  ---------------------------------------------------
  alpha Z        PSCENC =        10.18745171
  Ewald energy   TEWEN  =      -512.35975571
  -Hartree energ DENC   =      -180.67534603
  -exchange      EXHF   =         0.00000000
  -V(xc)+E(xc)   XCENC  =       -68.09207425
  PAW double counting   =      1602.11393302    -1487.98529187
  entropy T*S    EENTRO =         0.00000000
  eigenvalues    EBANDS =       -20.14400624
  atomic energy  EATOM  =       634.03677096
  Solvation  Ediel_sol  =         0.00000000
  ---------------------------------------------------
  free energy    TOTEN  =       -22.91831841 eV

  energy without entropy =      -22.91831841  energy(sigma->0) =      -22.91831841


--------------------------------------------------------------------------------------------------------




--------------------------------------- Iteration      1(   9)  ---------------------------------------


    POTLOK:  cpu time      0.0065: real time      0.0069
    SETDIJ:  cpu time      0.0019: real time      0.0019
     EDDAV:  cpu time      0.3686: real time      0.3711
 BZINTS: Fermi energy:    3.879898;   16.000000 electrons
         Band energy:-0.196825E+02;  BLOECHL correction:   -0.000000
       DOS:  cpu time      0.0032: real time      0.0032
    CHARGE:  cpu time      0.0088: real time      0.0088
    MIXING:  cpu time      0.0004: real time      0.0004
    --------------------------------------------
      LOOP:  cpu time      0.3893: real time      0.3923

 eigenvalue-minimisations  :  3408
 total energy-change (2. order) : 0.1029695E-02  (-0.6651106E-03)
 number of electron      15.9999997 magnetization 
 augmentation part       -0.8127264 magnetization 

 Broyden mixing:
  rms(total) = 0.22222E-01    rms(broyden)= 0.22221E-01
  rms(prec ) = 0.24712E-01
  weight for this iteration     100.00

 eigenvalues of (default mixing * dielectric matrix)
  average eigenvalue GAMMA=   1.7361
  0.9199  0.9199  2.5523  2.5523

 Free energy of the ion-electron system (eV)
  ---------------------------------------------------
  alpha Z        PSCENC =        10.18745171
  Ewald energy   TEWEN  =      -512.35975571
  -Hartree energ DENC   =      -181.17192452
  -exchange      EXHF   =         0.00000000
  -V(xc)+E(xc)   XCENC  =       -68.04525367
  PAW double counting   =      1602.77478078    -1488.65683638
  entropy T*S    EENTRO =         0.00000000
  eigenvalues    EBANDS =       -19.68252189
  atomic energy  EATOM  =       634.03677096
  Solvation  Ediel_sol  =         0.00000000
  ---------------------------------------------------
  free energy    TOTEN  =       -22.91728872 eV

  energy without entropy =      -22.91728872  energy(sigma->0) =      -22.91728872


--------------------------------------------------------------------------------------------------------




--------------------------------------- Iteration      1(  10)  ---------------------------------------


    POTLOK:  cpu time      0.0058: real time      0.0071
    SETDIJ:  cpu time      0.0019: real time      0.0019
     EDDAV:  cpu time      0.6335: real time      0.6375
 BZINTS: Fermi energy:    3.887511;   16.000000 electrons
         Band energy:-0.195914E+02;  BLOECHL correction:   -0.000000
       DOS:  cpu time      0.0033: real time      0.0033
    CHARGE:  cpu time      0.0088: real time      0.0089
    MIXING:  cpu time      0.0004: real time      0.0004
    --------------------------------------------
      LOOP:  cpu time      0.6536: real time      0.6590

 eigenvalue-minimisations  :  3888
 total energy-change (2. order) :-0.2217826E-03  (-0.7646528E-04)
 number of electron      15.9999997 magnetization 
 augmentation part       -0.8159998 magnetization 

 Broyden mixing:
  rms(total) = 0.50814E-02    rms(broyden)= 0.50805E-02
  rms(prec ) = 0.58222E-02
  weight for this iteration     100.00

 eigenvalues of (default mixing * dielectric matrix)
  average eigenvalue GAMMA=   1.3906
  2.5531  2.5531  0.9198  0.9198  0.0071

 Free energy of the ion-electron system (eV)
  ---------------------------------------------------
  alpha Z        PSCENC =        10.18745171
  Ewald energy   TEWEN  =      -512.35975571
  -Hartree energ DENC   =      -181.27151187
  -exchange      EXHF   =         0.00000000
  -V(xc)+E(xc)   XCENC  =       -68.02796078
  PAW double counting   =      1591.34964886    -1477.24073789
  entropy T*S    EENTRO =         0.00000000
  eigenvalues    EBANDS =       -19.59141578
  atomic energy  EATOM  =       634.03677096
  Solvation  Ediel_sol  =         0.00000000
  ---------------------------------------------------
  free energy    TOTEN  =       -22.91751050 eV

  energy without entropy =      -22.91751050  energy(sigma->0) =      -22.91751050


--------------------------------------------------------------------------------------------------------




--------------------------------------- Iteration      1(  11)  ---------------------------------------


    POTLOK:  cpu time      0.0039: real time      0.0101
    SETDIJ:  cpu time      0.0019: real time      0.0019
     EDDAV:  cpu time      0.2350: real time      0.2367
 BZINTS: Fermi energy:    3.887723;   16.000000 electrons
         Band energy:-0.195881E+02;  BLOECHL correction:   -0.000000
       DOS:  cpu time      0.0035: real time      0.0035
    --------------------------------------------
      LOOP:  cpu time      0.2443: real time      0.2522

 eigenvalue-minimisations  :  2280
 total energy-change (2. order) :-0.4567494E-06  (-0.3988331E-06)
 number of electron      15.9999997 magnetization 
 augmentation part       -0.8159998 magnetization 

 Free energy of the ion-electron system (eV)
  ---------------------------------------------------
  alpha Z        PSCENC =        10.18745171
  Ewald energy   TEWEN  =      -512.35975571
  -Hartree energ DENC   =      -181.27490270
  -exchange      EXHF   =         0.00000000
  -V(xc)+E(xc)   XCENC  =       -68.02765499
  PAW double counting   =      1591.16802172    -1477.05936607
  entropy T*S    EENTRO =         0.00000000
  eigenvalues    EBANDS =       -19.58807588
  atomic energy  EATOM  =       634.03677096
  Solvation  Ediel_sol  =         0.00000000
  ---------------------------------------------------
  free energy    TOTEN  =       -22.91751096 eV

  energy without entropy =      -22.91751096  energy(sigma->0) =      -22.91751096


--------------------------------------------------------------------------------------------------------




 average (electrostatic) potential at core
  the test charge radii are     1.4837  0.7089
  (the norm of the test charge is              1.0000)
       1 -36.8658       2 -36.8658       3 -63.4517       4 -63.4517
 
 
 
 E-fermi :   3.8877     XC(G=0): -10.3260     alpha+bet :-11.1525

 val. band max:        3.8868474756   @ k =   0.0000   0.0000   0.0000
 cond. band min:       3.8869742173   @ k =   0.0000   0.0000   0.0000
 fundamental gap:      0.0001267417
 Fermi energy:         3.8877231733

 k-point     1 :       0.0000    0.0000    0.0000
  band No.  band energies     occupation 
      1     -10.3658      2.00000
      2      -8.7091      2.00000
      3      -1.6684      2.00000
      4       3.0453      2.00000
      5       3.0453      2.00000
      6       3.5360      2.00000
      7       3.8868      2.00000
      8       3.8868      2.00000
      9       3.8870      0.00000
     10       6.4994      0.00000
     11      10.6170      0.00000
     12      12.7420      0.00000
     13      12.7420      0.00000
     14      13.5930      0.00000
     15      13.9811      0.00000
     16      13.9811      0.00000
     17      15.6283      0.00000
     18      17.1002      0.00000
     19      17.1002      0.00000
     20      18.2484      0.00000
     21      18.2484      0.00000
     22      18.4640      0.00000
     23      19.2003      0.00000
     24      21.3210      0.00000

 k-point     2 :       0.1000    0.0000    0.0000
  band No.  band energies     occupation 
      1     -10.2655      2.00000
      2      -8.6494      2.00000
      3      -1.5609      2.00000
      4       2.4119      2.00000
      5       2.6875      2.00000
      6       2.8890      2.00000
      7       3.7984      2.00000
      8       3.8113      2.00000
      9       4.7552     -0.00000
     10       7.0285      0.00000
     11      10.5609      0.00000
     12      11.9489      0.00000
     13      12.9022      0.00000
     14      13.3364      0.00000
     15      13.7822      0.00000
     16      14.1081      0.00000
     17      15.4083      0.00000
     18      16.6293      0.00000
     19      17.2218      0.00000
     20      18.4322      0.00000
     21      19.1430      0.00000
     22      19.4045      0.00000
     23      19.9390      0.00000
     24      21.7590      0.00000

 k-point     3 :       0.2000    0.0000    0.0000
  band No.  band energies     occupation 
      1      -9.9770      2.00000
      2      -8.4934      2.00000
      3      -1.2651      2.00000
      4       1.1940      2.00000
      5       1.7193      2.00000
      6       2.5149      2.00000
      7       3.5462      2.00000
      8       3.6050      2.00000
      9       5.7024      0.00000
     10       7.9668      0.00000
     11      10.1792      0.00000
     12      11.0631      0.00000
     13      12.3633      0.00000
     14      13.2468      0.00000
     15      13.7207      0.00000
     16      14.2792      0.00000
     17      14.9071      0.00000
     18      16.5760      0.00000
     19      17.2571      0.00000
     20      19.5317      0.00000
     21      20.5386      0.00000
     22      20.6679      0.00000
     23      21.3206      0.00000
     24      21.7060      0.00000

 k-point     4 :       0.3000    0.0000    0.0000
  band No.  band energies     occupation 
      1      -9.5453      2.00000
      2      -8.3159      2.00000
      3      -0.9401      2.00000
      4       0.1411      2.00000
      5       0.8214      2.00000
      6       2.1020      2.00000
      7       3.1120      2.00000
      8       3.3460      2.00000
      9       6.5640      0.00000
     10       8.5128      0.00000
     11       9.5185      0.00000
     12      10.6074      0.00000
     13      12.0246      0.00000
     14      13.2094      0.00000
     15      13.3766      0.00000
     16      14.4840      0.00000
     17      15.2617      0.00000
     18      17.1594      0.00000
     19      17.4122      0.00000
     20      19.0379      0.00000
     21      21.3294      0.00000
     22      22.3481      0.00000
     23      22.4449      0.00000
     24      22.7411      0.00000

 k-point     5 :       0.4000    0.0000    0.0000
  band No.  band energies     occupation 
      1      -9.0752      2.00000
      2      -8.2336      2.00000
      3      -1.1347      2.00000
      4      -0.3007      2.00000
      5       0.4726      2.00000
      6       1.7966      2.00000
      7       2.5691      2.00000
      8       3.1383      2.00000
      9       7.2516      0.00000
     10       8.3989      0.00000
     11       9.1942      0.00000
     12      10.2153      0.00000
     13      12.0920      0.00000
     14      13.2476      0.00000
     15      13.3215      0.00000
     16      14.8326      0.00000
     17      15.3802      0.00000
     18      17.4607      0.00000
     19      18.3321      0.00000
     20      18.6555      0.00000
     21      21.1933      0.00000
     22      22.2002      0.00000
     23      23.0441      0.00000
     24      23.0550      0.00000

 k-point     6 :       0.5000    0.0000    0.0000
  band No.  band energies     occupation 
      1      -8.8194      2.00000
      2      -8.2621      2.00000
      3      -1.3568      2.00000
      4      -0.4979      2.00000
      5       0.6353      2.00000
      6       1.6854      2.00000
      7       2.2520      2.00000
      8       3.0597      2.00000
      9       7.5764      0.00000
     10       8.2152      0.00000
     11       9.0790      0.00000
     12      10.1000      0.00000
     13      12.0788      0.00000
     14      13.1757      0.00000
     15      13.5788      0.00000
     16      14.9915      0.00000
     17      15.3349      0.00000
     18      17.7255      0.00000
     19      18.0307      0.00000
     20      19.4267      0.00000
     21      21.0378      0.00000
     22      22.3755      0.00000
     23      22.4417      0.00000
     24      22.5449      0.00000

 k-point     7 :       0.1000    0.1000    0.0000
  band No.  band energies     occupation 
      1     -10.0709      2.00000
      2      -8.5411      2.00000
      3      -1.3581      2.00000
      4       1.7245      2.00000
      5       1.7565      2.00000
      6       2.6663      2.00000
      7       3.6048      2.00000
      8       3.6367      2.00000
      9       5.4813      0.00000
     10       7.7652      0.00000
     11      10.4263      0.00000
     12      11.1308      0.00000
     13      12.6344      0.00000
     14      13.1526      0.00000
     15      13.4525      0.00000
     16      14.5533      0.00000
     17      15.3389      0.00000
     18      15.6453      0.00000
     19      18.3829      0.00000
     20      18.7991      0.00000
     21      19.7404      0.00000
     22      20.3884      0.00000
     23      21.3475      0.00000
     24      21.4241      0.00000

 k-point     8 :       0.2000    0.1000    0.0000
  band No.  band energies     occupation 
      1      -9.7084      2.00000
      2      -8.3716      2.00000
      3      -1.0250      2.00000
      4       0.6301      2.00000
      5       1.0171      2.00000
      6       2.1313      2.00000
      7       3.2822      2.00000
      8       3.3071      2.00000
      9       6.3714      0.00000
     10       8.6047      0.00000
     11       9.9236      0.00000
     12      10.6163      0.00000
     13      11.9906      0.00000
     14      12.9452      0.00000
     15      13.1717      0.00000
     16      14.8678      0.00000
     17      15.2533      0.00000
     18      16.1384      0.00000
     19      18.3006      0.00000
     20      19.8353      0.00000
     21      20.0931      0.00000
     22      21.4496      0.00000
     23      22.4087      0.00000
     24      22.5880      0.00000

 k-point     9 :       0.3000    0.1000    0.0000
  band No.  band energies     occupation 
      1      -9.2472      2.00000
      2      -8.2386      2.00000
      3      -0.9090      2.00000
      4      -0.1248      2.00000
      5       0.5338      2.00000
      6       1.6254      2.00000
      7       2.8136      2.00000
      8       2.9845      2.00000
      9       7.2080      0.00000
     10       8.9142      0.00000
     11       9.3176      0.00000
     12      10.3366      0.00000
     13      11.9940      0.00000
     14      12.8348      0.00000
     15      12.9246      0.00000
     16      14.8159      0.00000
     17      15.6022      0.00000
     18      17.1303      0.00000
     19      18.2840      0.00000
     20      19.2620      0.00000
     21      20.9867      0.00000
     22      22.3826      0.00000
     23      22.4901      0.00000
     24      22.8830      0.00000

 k-point    10 :       0.4000    0.1000    0.0000
  band No.  band energies     occupation 
      1      -8.8429      2.00000
      2      -8.2379      2.00000
      3      -1.2178      2.00000
      4      -0.4285      2.00000
      5       0.6166      2.00000
      6       1.4057      2.00000
      7       2.3036      2.00000
      8       2.8079      2.00000
      9       7.7984      0.00000
     10       8.7312      0.00000
     11       9.0708      0.00000
     12      10.0917      0.00000
     13      12.0586      0.00000
     14      12.7210      0.00000
     15      13.4404      0.00000
     16      14.6603      0.00000
     17      15.5833      0.00000
     18      18.0209      0.00000
     19      18.3343      0.00000
     20      19.1751      0.00000
     21      20.8358      0.00000
     22      22.3037      0.00000
     23      22.6144      0.00000
     24      23.0085      0.00000

 k-point    11 :       0.2000    0.2000    0.0000
  band No.  band energies     occupation 
      1      -9.3099      2.00000
      2      -8.2420      2.00000
      3      -0.8091      2.00000
      4       0.0740      2.00000
      5       0.5477      2.00000
      6       1.4336      2.00000
      7       2.7751      2.00000
      8       2.9252      2.00000
      9       7.2879      0.00000
     10       9.1803      0.00000
     11       9.8845      0.00000
     12      10.1588      0.00000
     13      11.8522      0.00000
     14      12.3004      0.00000
     15      12.7038      0.00000
     16      15.1736      0.00000
     17      15.5328      0.00000
     18      16.5490      0.00000
     19      19.7349      0.00000
     20      19.7508      0.00000
     21      20.0458      0.00000
     22      21.6050      0.00000
     23      22.0282      0.00000
     24      22.9415      0.00000

 k-point    12 :       0.3000    0.2000    0.0000
  band No.  band energies     occupation 
      1      -8.8772      2.00000
      2      -8.2026      2.00000
      3      -0.8823      2.00000
      4      -0.3912      2.00000
      5       0.6470      2.00000
      6       0.9134      2.00000
      7       2.3490      2.00000
      8       2.4442      2.00000
      9       8.1629      0.00000
     10       9.0402      0.00000
     11       9.7110      0.00000
     12      10.1207      0.00000
     13      11.9670      0.00000
     14      12.2985      0.00000
     15      12.6386      0.00000
     16      14.6995      0.00000
     17      15.4257      0.00000
     18      17.6801      0.00000
     19      19.6735      0.00000
     20      19.9010      0.00000
     21      20.5639      0.00000
     22      21.3995      0.00000
     23      22.3306      0.00000
     24      23.0523      0.00000

 k-point    13 :       0.4000    0.2000    0.0000
  band No.  band energies     occupation 
      1      -8.6297      2.00000
      2      -8.2574      2.00000
      3      -1.0333      2.00000
      4      -0.4503      2.00000
      5       0.3977      2.00000
      6       1.1867      2.00000
      7       2.0206      2.00000
      8       2.2598      2.00000
      9       8.5720      0.00000
     10       8.9246      0.00000
     11       9.6473      0.00000
     12       9.9586      0.00000
     13      12.0117      0.00000
     14      12.1055      0.00000
     15      13.6809      0.00000
     16      13.8985      0.00000
     17      15.2321      0.00000
     18      18.8647      0.00000
     19      19.0329      0.00000
     20      19.7036      0.00000
     21      20.4029      0.00000
     22      21.3755      0.00000
     23      22.8962      0.00000
     24      23.6016      0.00000

 k-point    14 :       0.3000    0.3000    0.0000
  band No.  band energies     occupation 
      1      -8.5353      2.00000
      2      -8.2753      2.00000
      3      -0.6949      2.00000
      4      -0.5705      2.00000
      5       0.0395      2.00000
      6       1.2981      2.00000
      7       1.9300      2.00000
      8       1.9356      2.00000
      9       8.8036      0.00000
     10       9.0498      0.00000
     11       9.7190      0.00000
     12      10.3566      0.00000
     13      11.8949      0.00000
     14      12.0027      0.00000
     15      13.2559      0.00000
     16      14.2802      0.00000
     17      14.5158      0.00000
     18      18.7919      0.00000
     19      20.0482      0.00000
     20      20.0554      0.00000
     21      20.3138      0.00000
     22      21.4523      0.00000
     23      22.2284      0.00000
     24      23.2981      0.00000

 k-point    15 :       0.0000    0.0000    0.1667
  band No.  band energies     occupation 
      1     -10.2845      2.00000
      2      -8.8676      2.00000
      3      -1.3612      2.00000
      4       2.6794      2.00000
      5       3.0998      2.00000
      6       3.0998      2.00000
      7       3.8288      2.00000
      8       3.8288      2.00000
      9       4.6807     -0.00000
     10       6.4988      0.00000
     11      10.5522      0.00000
     12      12.7524      0.00000
     13      12.7524      0.00000
     14      12.8201      0.00000
     15      13.7917      0.00000
     16      13.7917      0.00000
     17      15.8870      0.00000
     18      17.3431      0.00000
     19      17.3431      0.00000
     20      18.2988      0.00000
     21      18.5691      0.00000
     22      18.5691      0.00000
     23      20.1659      0.00000
     24      21.2650      0.00000

 k-point    16 :       0.1000    0.0000    0.1667
  band No.  band energies     occupation 
      1     -10.1856      2.00000
      2      -8.8024      2.00000
      3      -1.2708      2.00000
      4       2.2187      2.00000
      5       2.5713      2.00000
      6       2.9479      2.00000
      7       3.6743      2.00000
      8       3.7467      2.00000
      9       5.1420     -0.00000
     10       7.0122      0.00000
     11      10.4658      0.00000
     12      11.9758      0.00000
     13      12.8575      0.00000
     14      12.9098      0.00000
     15      13.3168      0.00000
     16      13.9133      0.00000
     17      15.9867      0.00000
     18      16.9569      0.00000
     19      17.3915      0.00000
     20      18.4857      0.00000
     21      19.2138      0.00000
     22      19.3621      0.00000
     23      20.6575      0.00000
     24      21.5950      0.00000

 k-point    17 :       0.2000    0.0000    0.1667
  band No.  band energies     occupation 
      1      -9.9020      2.00000
      2      -8.6295      2.00000
      3      -1.0432      2.00000
      4       1.1787      2.00000
      5       1.6451      2.00000
      6       2.5829      2.00000
      7       3.4605      2.00000
      8       3.5265      2.00000
      9       5.8828      0.00000
     10       7.9195      0.00000
     11      10.0876      0.00000
     12      11.0116      0.00000
     13      12.3623      0.00000
     14      13.1353      0.00000
     15      13.2539      0.00000
     16      14.1248      0.00000
     17      15.2026      0.00000
     18      16.9043      0.00000
     19      17.5934      0.00000
     20      19.4837      0.00000
     21      20.1977      0.00000
     22      20.7355      0.00000
     23      21.6337      0.00000
     24      21.8909      0.00000

 k-point    18 :       0.3000    0.0000    0.1667
  band No.  band energies     occupation 
      1      -9.4800      2.00000
      2      -8.4218      2.00000
      3      -0.9126      2.00000
      4       0.1877      2.00000
      5       0.8796      2.00000
      6       2.1781      2.00000
      7       3.1417      2.00000
      8       3.2542      2.00000
      9       6.5581      0.00000
     10       8.4310      0.00000
     11       9.5527      0.00000
     12      10.5224      0.00000
     13      12.0329      0.00000
     14      13.0779      0.00000
     15      13.4219      0.00000
     16      14.3796      0.00000
     17      14.8690      0.00000
     18      17.5815      0.00000
     19      17.6514      0.00000
     20      19.2262      0.00000
     21      20.8482      0.00000
     22      21.8502      0.00000
     23      22.3769      0.00000
     24      22.6324      0.00000

 k-point    19 :       0.4000    0.0000    0.1667
  band No.  band energies     occupation 
      1      -9.0267      2.00000
      2      -8.2989      2.00000
      3      -1.2332      2.00000
      4      -0.4468      2.00000
      5       0.7929      2.00000
      6       1.8777      2.00000
      7       2.7191      2.00000
      8       3.0378      2.00000
      9       7.0403      0.00000
     10       8.3022      0.00000
     11       9.4245      0.00000
     12      10.2060      0.00000
     13      11.9452      0.00000
     14      13.2790      0.00000
     15      13.3436      0.00000
     16      14.7115      0.00000
     17      14.7671      0.00000
     18      17.9022      0.00000
     19      18.8394      0.00000
     20      18.8525      0.00000
     21      20.3523      0.00000
     22      22.3916      0.00000
     23      22.6159      0.00000
     24      23.4512      0.00000

 k-point    20 :       0.5000    0.0000    0.1667
[...]
     19      18.7617      0.00000
     20      18.7617      0.00000
     21      18.9328      0.00000
     22      18.9328      0.00000
     23      21.2574      0.00000
     24      21.2574      0.00000

 k-point    45 :       0.2000    0.0000    0.5000
  band No.  band energies     occupation 
      1      -9.3498      2.00000
      2      -9.3498      2.00000
      3       0.1736      2.00000
      4       0.1736      2.00000
      5       2.4836      2.00000
      6       2.4836      2.00000
      7       3.0404      2.00000
      8       3.0404      2.00000
      9       7.1002      0.00000
     10       7.1002      0.00000
     11      10.3168      0.00000
     12      10.3168      0.00000
     13      12.2191      0.00000
     14      12.2191      0.00000
     15      13.5089      0.00000
     16      13.5089      0.00000
     17      16.7099      0.00000
     18      16.7099      0.00000
     19      18.8529      0.00000
     20      18.8529      0.00000
     21      20.1753      0.00000
     22      20.1753      0.00000
     23      21.2392      0.00000
     24      21.2392      0.00000

 k-point    46 :       0.3000    0.0000    0.5000
  band No.  band energies     occupation 
      1      -9.0081      2.00000
      2      -9.0081      2.00000
      3      -0.4676      2.00000
      4      -0.4676      2.00000
      5       2.2923      2.00000
      6       2.2923      2.00000
      7       2.6941      2.00000
      8       2.6941      2.00000
      9       7.3479      0.00000
     10       7.3479      0.00000
     11      10.1145      0.00000
     12      10.1145      0.00000
     13      12.0444      0.00000
     14      12.0444      0.00000
     15      13.8177      0.00000
     16      13.8177      0.00000
     17      16.0994      0.00000
     18      16.0994      0.00000
     19      19.3327      0.00000
     20      19.3327      0.00000
     21      20.4792      0.00000
     22      20.4792      0.00000
     23      22.7487      0.00000
     24      22.7487      0.00000

 k-point    47 :       0.4000    0.0000    0.5000
  band No.  band energies     occupation 
      1      -8.6865      2.00000
      2      -8.6865      2.00000
      3      -1.1368      2.00000
      4      -1.1368      2.00000
      5       2.3606      2.00000
      6       2.3606      2.00000
      7       2.4304      2.00000
      8       2.4304      2.00000
      9       7.2685      0.00000
     10       7.2685      0.00000
     11      10.1741      0.00000
     12      10.1741      0.00000
     13      11.8716      0.00000
     14      11.8716      0.00000
     15      13.9917      0.00000
     16      13.9917      0.00000
     17      15.9852      0.00000
     18      15.9852      0.00000
     19      20.2088      0.00000
     20      20.2088      0.00000
     21      20.5125      0.00000
     22      20.5125      0.00000
     23      23.0959      0.00000
     24      23.0959      0.00000

 k-point    48 :       0.5000    0.0000    0.5000
  band No.  band energies     occupation 
      1      -8.5494      2.00000
      2      -8.5494      2.00000
      3      -1.4152      2.00000
      4      -1.4152      2.00000
      5       2.3330      2.00000
      6       2.3330      2.00000
      7       2.4163      2.00000
      8       2.4163      2.00000
      9       7.1949      0.00000
     10       7.1949      0.00000
     11      10.2390      0.00000
     12      10.2390      0.00000
     13      11.7660      0.00000
     14      11.7660      0.00000
     15      14.0414      0.00000
     16      14.0414      0.00000
     17      16.0571      0.00000
     18      16.0571      0.00000
     19      20.5308      0.00000
     20      20.5308      0.00000
     21      20.8623      0.00000
     22      20.8623      0.00000
     23      22.8103      0.00000
     24      22.8103      0.00000

 k-point    49 :       0.1000    0.1000    0.5000
  band No.  band energies     occupation 
      1      -9.4279      2.00000
      2      -9.4279      2.00000
      3       0.2908      2.00000
      4       0.2908      2.00000
      5       2.6457      2.00000
      6       2.6457      2.00000
      7       3.0706      2.00000
      8       3.0706      2.00000
      9       6.9935      0.00000
     10       6.9935      0.00000
     11      10.4236      0.00000
     12      10.4236      0.00000
     13      12.2669      0.00000
     14      12.2669      0.00000
     15      13.3888      0.00000
     16      13.3888      0.00000
     17      17.2151      0.00000
     18      17.2151      0.00000
     19      18.2272      0.00000
     20      18.2272      0.00000
     21      20.2230      0.00000
     22      20.2230      0.00000
     23      21.1941      0.00000
     24      21.1941      0.00000

 k-point    50 :       0.2000    0.1000    0.5000
  band No.  band energies     occupation 
      1      -9.1326      2.00000
      2      -9.1326      2.00000
      3      -0.1707      2.00000
      4      -0.1707      2.00000
      5       2.3470      2.00000
      6       2.3470      2.00000
      7       2.6545      2.00000
      8       2.6545      2.00000
      9       7.4668      0.00000
     10       7.4668      0.00000
     11      10.1651      0.00000
     12      10.1651      0.00000
     13      11.9667      0.00000
     14      11.9667      0.00000
     15      13.6411      0.00000
     16      13.6411      0.00000
     17      16.6764      0.00000
     18      16.6764      0.00000
     19      18.4002      0.00000
     20      18.4002      0.00000
     21      21.0589      0.00000
     22      21.0589      0.00000
     23      22.2918      0.00000
     24      22.2918      0.00000

 k-point    51 :       0.3000    0.1000    0.5000
  band No.  band energies     occupation 
      1      -8.7930      2.00000
      2      -8.7930      2.00000
      3      -0.8248      2.00000
      4      -0.8248      2.00000
      5       2.1046      2.00000
      6       2.1046      2.00000
      7       2.5029      2.00000
      8       2.5029      2.00000
      9       7.6023      0.00000
     10       7.6023      0.00000
     11      10.1403      0.00000
     12      10.1403      0.00000
     13      11.7225      0.00000
     14      11.7225      0.00000
     15      13.9138      0.00000
     16      13.9138      0.00000
     17      16.2386      0.00000
     18      16.2386      0.00000
     19      19.1676      0.00000
     20      19.1676      0.00000
     21      21.0418      0.00000
     22      21.0418      0.00000
     23      23.2596      0.00000
     24      23.2596      0.00000

 k-point    52 :       0.4000    0.1000    0.5000
  band No.  band energies     occupation 
      1      -8.5528      2.00000
      2      -8.5528      2.00000
      3      -1.2932      2.00000
      4      -1.2932      2.00000
      5       1.8945      2.00000
      6       1.8945      2.00000
      7       2.5683      2.00000
      8       2.5683      2.00000
      9       7.5463      0.00000
     10       7.5463      0.00000
     11      10.2567      0.00000
     12      10.2567      0.00000
     13      11.4904      0.00000
     14      11.4904      0.00000
     15      14.1285      0.00000
     16      14.1285      0.00000
     17      16.1781      0.00000
     18      16.1781      0.00000
     19      19.9225      0.00000
     20      19.9225      0.00000
     21      20.8213      0.00000
     22      20.8213      0.00000
     23      23.0278      0.00000
     24      23.0278      0.00000

 k-point    53 :       0.2000    0.2000    0.5000
  band No.  band energies     occupation 
      1      -8.8332      2.00000
      2      -8.8332      2.00000
      3      -0.6404      2.00000
      4      -0.6404      2.00000
      5       1.9185      2.00000
      6       1.9185      2.00000
      7       2.4857      2.00000
      8       2.4857      2.00000
      9       7.9136      0.00000
     10       7.9136      0.00000
     11      10.1196      0.00000
     12      10.1196      0.00000
     13      11.5230      0.00000
     14      11.5230      0.00000
     15      13.8544      0.00000
     16      13.8544      0.00000
     17      16.6123      0.00000
     18      16.6123      0.00000
     19      18.4938      0.00000
     20      18.4938      0.00000
     21      21.5654      0.00000
     22      21.5654      0.00000
     23      22.8526      0.00000
     24      22.8526      0.00000

 k-point    54 :       0.3000    0.2000    0.5000
  band No.  band energies     occupation 
      1      -8.5584      2.00000
      2      -8.5584      2.00000
      3      -1.0542      2.00000
      4      -1.0542      2.00000
      5       1.3768      2.00000
      6       1.3768      2.00000
      7       2.6138      2.00000
      8       2.6138      2.00000
      9       8.1790      0.00000
     10       8.1790      0.00000
     11      10.2010      0.00000
     12      10.2010      0.00000
     13      11.0550      0.00000
     14      11.0550      0.00000
     15      14.3052      0.00000
     16      14.3052      0.00000
     17      16.3387      0.00000
     18      16.3387      0.00000
     19      18.9606      0.00000
     20      18.9606      0.00000
     21      21.3612      0.00000
     22      21.3612      0.00000
     23      22.9560      0.00000
     24      22.9560      0.00000

 k-point    55 :       0.4000    0.2000    0.5000
  band No.  band energies     occupation 
      1      -8.4436      2.00000
      2      -8.4436      2.00000
      3      -1.2235      2.00000
      4      -1.2235      2.00000
      5       1.1740      2.00000
      6       1.1740      2.00000
      7       2.6777      2.00000
      8       2.6777      2.00000
      9       8.2497      0.00000
     10       8.2497      0.00000
     11      10.3079      0.00000
     12      10.3079      0.00000
     13      10.7996      0.00000
     14      10.7996      0.00000
     15      14.5932      0.00000
     16      14.5932      0.00000
     17      16.2436      0.00000
     18      16.2436      0.00000
     19      19.0070      0.00000
     20      19.0070      0.00000
     21      21.2269      0.00000
     22      21.2269      0.00000
     23      23.1328      0.00000
     24      23.1328      0.00000

 k-point    56 :       0.3000    0.3000    0.5000
  band No.  band energies     occupation 
      1      -8.4018      2.00000
      2      -8.4018      2.00000
      3      -1.1171      2.00000
      4      -1.1171      2.00000
      5       0.8073      2.00000
      6       0.8073      2.00000
      7       2.7164      2.00000
      8       2.7164      2.00000
      9       8.7521      0.00000
     10       8.7521      0.00000
     11      10.0389      0.00000
     12      10.0389      0.00000
     13      10.6025      0.00000
     14      10.6025      0.00000
     15      15.0492      0.00000
     16      15.0492      0.00000
     17      16.0408      0.00000
     18      16.0408      0.00000
     19      18.4965      0.00000
     20      18.4965      0.00000
     21      21.6258      0.00000
     22      21.6258      0.00000
     23      23.1863      0.00000
     24      23.1863      0.00000


--------------------------------------------------------------------------------------------------------


 soft charge-density along one line, spin component           1
         0         1         2         3         4         5         6         7         8         9
 total charge-density along one line
 
 pseudopotential strength for first ion, spin component:           1
 20.621  24.664   0.000  -0.000   0.000   0.000  -0.000   0.000
 24.664  29.513   0.000  -0.000   0.000   0.000  -0.000   0.000
  0.000   0.000   3.809  -0.000   0.000   6.539  -0.000   0.000
 -0.000  -0.000  -0.000   3.809  -0.000  -0.000   6.538  -0.000
  0.000   0.000   0.000  -0.000   3.809   0.000  -0.000   6.539
  0.000   0.000   6.539  -0.000   0.000  11.282  -0.000   0.000
 -0.000  -0.000  -0.000   6.538  -0.000  -0.000  11.281  -0.000
  0.000   0.000   0.000  -0.000   6.539   0.000  -0.000  11.282
  0.000   0.000  -0.000  -0.000   0.003  -0.000  -0.000   0.004
 -0.000  -0.000  -0.002   0.000  -0.000  -0.002   0.000  -0.000
 -0.001  -0.001  -0.000   0.003   0.000  -0.000   0.004   0.000
 -0.000  -0.000  -0.000   0.000  -0.002  -0.000   0.000  -0.002
  0.000   0.000   0.003  -0.000   0.000   0.004  -0.000   0.000
 total augmentation occupancy for first ion, spin component:           1
  9.488  -5.548   0.000   0.033   0.000  -0.000  -0.014   0.000  -0.000   0.000  -0.023   0.000   0.000
 -5.548   3.480   0.000  -0.019   0.000   0.000   0.008   0.000   0.000   0.000   0.010   0.000  -0.000
  0.000   0.000   4.034   0.000  -0.000  -1.296  -0.000   0.000  -0.000  -0.334  -0.000  -0.000   0.508
  0.033  -0.019   0.000   3.900   0.000  -0.000  -1.249  -0.000   0.000  -0.000   0.597   0.000  -0.000
  0.000   0.000  -0.000   0.000   4.034  -0.000  -0.000  -1.296   0.508   0.000   0.000  -0.334   0.000
 -0.000   0.000  -1.296  -0.000  -0.000   0.437   0.000  -0.000   0.000   0.104   0.000   0.000  -0.158
 -0.014   0.008  -0.000  -1.249  -0.000   0.000   0.420   0.000   0.000   0.000  -0.185  -0.000   0.000
  0.000   0.000   0.000  -0.000  -1.296  -0.000   0.000   0.437  -0.158  -0.000   0.000   0.104  -0.000
 -0.000   0.000  -0.000   0.000   0.508   0.000   0.000  -0.158   0.160   0.000  -0.000  -0.057   0.000
  0.000   0.000  -0.334  -0.000   0.000   0.104   0.000  -0.000   0.000   0.110   0.000  -0.000  -0.057
 -0.023   0.010  -0.000   0.597   0.000   0.000  -0.185   0.000  -0.000   0.000   0.200  -0.000  -0.000
  0.000   0.000   0.000   0.000  -0.334  -0.000  -0.000   0.104  -0.057  -0.000  -0.000   0.110  -0.000
  0.000  -0.000   0.508  -0.000   0.000  -0.158   0.000  -0.000  -0.000  -0.057  -0.000  -0.000   0.160


------------------------ aborting loop because EDIFF is reached ----------------------------------------


    CHARGE:  cpu time      0.0088: real time      0.0088
    FORLOC:  cpu time      0.0003: real time      0.0003
    FORNL :  cpu time      0.0168: real time      0.0169
    STRESS:  cpu time      0.6032: real time      0.6058
    FORCOR:  cpu time      0.0037: real time      0.0037
    FORHAR:  cpu time      0.0009: real time      0.0009
    MIXING:  cpu time      0.0003: real time      0.0003
    OFIELD:  cpu time      0.0000: real time      0.0000

  FORCE on cell =-STRESS in cart. coord.  units (eV):
  Direction    XX          YY          ZZ          XY          YZ          ZX
  --------------------------------------------------------------------------------------
  Alpha Z    10.18785    10.18785    10.18785
  Ewald    -172.66159  -172.66160  -167.04370     0.00000     0.00000    -0.00000
  Hartree    58.97998    58.97998    63.32652    -0.00000    -0.00000    -0.00000
  E(xc)     -68.22006   -68.22006   -68.02925     0.00000    -0.00000     0.00000
  Local     -80.65481   -80.65473   -90.88880     0.00000    -0.00000    -0.00000
  n-local    44.45676    41.23993    41.56589    -1.38162    -0.16612     0.28603
  augment   -10.26280   -10.26285   -10.08286    -0.00000    -0.00000    -0.00000
  Kinetic   214.04966   225.52945   220.95846     6.92196     0.77452    -1.93975
  Fock        0.00000     0.00000     0.00000     0.00000     0.00000     0.00000
  -------------------------------------------------------------------------------------
  Total       0.00648     0.00648    -0.00590     0.00000     0.00000     0.00000
  in kB       0.16115     0.16115    -0.14683     0.00000     0.00000     0.00000
  external pressure =        0.06 kB  Pullay stress =        0.00 kB


 VOLUME and BASIS-vectors are now :
 -----------------------------------------------------------------------------
  energy-cutoff  :      550.00
  volume of cell :       64.38
      direct lattice vectors                 reciprocal lattice vectors
     1.793622457 -3.106645222  0.000000000     0.278765466 -0.160945317 -0.000000000
     1.793622457  3.106645222 -0.000000000     0.278765466  0.160945317 -0.000000000
     0.000000000  0.000000000  5.777232975     0.000000000  0.000000000  0.173093245

  length of vectors
     3.587244911  3.587244911  5.777232975     0.321890634  0.321890634  0.173093245


 FORCES acting on ions
    electron-ion (+dipol)            ewald-force                    non-local-force                 convergence-correction
 -----------------------------------------------------------------------------------------------
   0.420E-07 -.123E-05 0.351E-02   -.233E-13 -.154E-05 0.152E+00   -.277E-16 -.488E-16 -.155E+00   -.189E-14 0.582E-08 -.471E-03
   0.420E-07 0.846E-06 0.351E-02   0.191E-13 0.154E-05 0.152E+00   0.699E-17 0.631E-16 -.155E+00   -.197E-14 -.582E-08 -.471E-03
   -.167E-06 -.877E-05 0.358E-01   -.185E-13 -.162E-05 -.152E+00   0.831E-18 -.189E-17 0.119E+00   0.206E-13 0.153E-07 -.254E-02
   -.167E-06 0.217E-04 0.358E-01   0.233E-13 0.162E-05 -.152E+00   -.149E-17 0.185E-17 0.119E+00   0.219E-13 -.154E-07 -.254E-02
 -----------------------------------------------------------------------------------------------
   -.250E-06 0.125E-04 0.785E-01   0.650E-15 -.510E-16 0.000E+00   -.213E-16 0.143E-16 -.716E-01   0.386E-13 -.120E-09 -.601E-02
 
 
 POSITION                                       TOTAL-FORCE (eV/Angst)
 -----------------------------------------------------------------------------------
      1.79362      1.03555      5.76390         0.000000      0.000000     -0.000140
      1.79362     -1.03555      2.87528         0.000000      0.000000     -0.000140
      1.79362      1.03555      2.17980         0.000000     -0.000000      0.000140
      1.79362     -1.03555      5.06842        -0.000000      0.000000      0.000140
 -----------------------------------------------------------------------------------
    total drift:                               -0.000000      0.000013      0.000982


--------------------------------------------------------------------------------------------------------



  FREE ENERGIE OF THE ION-ELECTRON SYSTEM (eV)
  ---------------------------------------------------
  free  energy   TOTEN  =       -22.91750794 eV

  energy  without entropy=      -22.91750794  energy(sigma->0) =      -22.91750794
 
 d Force = 0.0000000E+00[ 0.000E+00, 0.000E+00]  d Energy = 0.5869795E-06-0.587E-06
 d Force = 0.0000000E+00[ 0.000E+00, 0.000E+00]  d Ewald  = 0.0000000E+00 0.000E+00


--------------------------------------------------------------------------------------------------------


    POTLOK:  cpu time      0.0061: real time      0.0073


--------------------------------------------------------------------------------------------------------




--------------------------------------------------------------------------------------------------------


 writing wavefunctions
     LOOP+:  cpu time      1.0366: real time      1.1232
    4ORBIT:  cpu time      0.0000: real time      0.0000
 BZINTS: Fermi energy:    3.889632;   16.000000 electrons
         Band energy:-0.195668E+02;  BLOECHL correction:   -0.000000

 total amount of memory used by VASP MPI-rank0    55847. kBytes
=======================================================================

   base      :      30000. kBytes
   nonl-proj :      22487. kBytes
   fftplans  :        332. kBytes
   grid      :       1233. kBytes
   one-center:         32. kBytes
   wavefun   :       1763. kBytes
 
  
  
 General timing and accounting informations for this job:
 ========================================================
  
                  Total CPU time used (sec):       67.453
                            User time (sec):       67.083
                          System time (sec):        0.370
                         Elapsed time (sec):       71.830
  
                   Maximum memory used (kb):      253464.
                   Average memory used (kb):          N/A
  
                          Minor page faults:        19996
                          Major page faults:           88
                 Voluntary context switches:         9299
