<?xml version="1.0" encoding="ISO-8859-1"?>
<modeling>
 <generator>
  <i name="program" type="string">vasp </i>
  <i name="version" type="string">6.4.3  </i>
  <i name="subversion" type="string">19Mar24 (build Sep 10 2024 18:11:34) complex                          parallel </i>
  <i name="platform" type="string">LinuxIFC </i>
  <i name="date" type="string">2025 11 13 </i>
  <i name="time" type="string">14:39:15 </i>
 </generator>
 <incar>
  <i type="int" name="ISTART">     0</i>
  <i type="int" name="ICHARG">     2</i>
  <i type="int" name="IBRION">     2</i>
  <i name="EDIFFG">     -0.00100000</i>
  <i type="int" name="NSW">    60</i>
  <i type="int" name="ISIF">     3</i>
  <i name="ENCUT">    550.00000000</i>
  <i type="int" name="ISMEAR">    -5</i>
  <i type="string" name="GGA">PS</i>
 </incar>
 <primitive_cell>
  <structure name="primitive_cell" >
   <crystal>
    <varray name="basis" >
     <v>       1.79365387      -3.10669963       0.00000000 </v>
     <v>       1.79365387       3.10669963       0.00000000 </v>
     <v>       0.00000000       0.00000000       5.77725379 </v>
    </varray>
    <i name="volume">     64.38568884 </i>
    <varray name="rec_basis" >
     <v>       0.27876058      -0.16094250       0.00000000 </v>
     <v>       0.27876058       0.16094250       0.00000000 </v>
     <v>       0.00000000       0.00000000       0.17309262 </v>
    </varray>
   </crystal>
   <varray name="positions" >
    <v>       0.33333333       0.66666667       0.99769314 </v>
    <v>       0.66666667       0.33333333       0.49769314 </v>
    <v>       0.33333333       0.66666667       0.37730686 </v>
    <v>       0.66666667       0.33333333       0.87730686 </v>
   </varray>
  </structure>
  <varray name="primitive_index" >
   <v type="int" >        1 </v>
   <v type="int" >        2 </v>
   <v type="int" >        3 </v>
   <v type="int" >        4 </v>
  </varray>
 </primitive_cell>
 <kpoints>
  <generation param="Gamma">
   <v type="int" name="divisions">      10       10        6 </v>
   <v name="usershift">      0.00000000       0.00000000       0.00000000 </v>
   <v name="genvec1">      0.10000000       0.00000000       0.00000000 </v>
   <v name="genvec2">      0.00000000       0.10000000       0.00000000 </v>
   <v name="genvec3">      0.00000000       0.00000000       0.16666667 </v>
   <v name="shift">      0.00000000       0.00000000       0.00000000 </v>
  </generation>
  <varray name="kpointlist" >
   <v>       0.00000000       0.00000000       0.00000000 </v>
   <v>       0.10000000       0.00000000       0.00000000 </v>
   <v>       0.20000000       0.00000000       0.00000000 </v>
   <v>       0.30000000       0.00000000       0.00000000 </v>
   <v>       0.40000000       0.00000000       0.00000000 </v>
   <v>       0.50000000       0.00000000       0.00000000 </v>
   <v>       0.10000000       0.10000000       0.00000000 </v>
   <v>       0.20000000       0.10000000       0.00000000 </v>
   <v>       0.30000000       0.10000000       0.00000000 </v>
   <v>       0.40000000       0.10000000       0.00000000 </v>
   <v>       0.20000000       0.20000000       0.00000000 </v>
   <v>       0.30000000       0.20000000       0.00000000 </v>
   <v>       0.40000000       0.20000000       0.00000000 </v>
   <v>       0.30000000       0.30000000       0.00000000 </v>
   <v>       0.00000000       0.00000000       0.16666667 </v>
   <v>       0.10000000       0.00000000       0.16666667 </v>
   <v>       0.20000000       0.00000000       0.16666667 </v>
   <v>       0.30000000       0.00000000       0.16666667 </v>
   <v>       0.40000000       0.00000000       0.16666667 </v>
   <v>       0.50000000       0.00000000       0.16666667 </v>
   <v>       0.10000000       0.10000000       0.16666667 </v>
   <v>       0.20000000       0.10000000       0.16666667 </v>
   <v>       0.30000000       0.10000000       0.16666667 </v>
   <v>       0.40000000       0.10000000       0.16666667 </v>
   <v>       0.20000000       0.20000000       0.16666667 </v>
   <v>       0.30000000       0.20000000       0.16666667 </v>
   <v>       0.40000000       0.20000000       0.16666667 </v>
   <v>       0.30000000       0.30000000       0.16666667 </v>
   <v>       0.00000000       0.00000000       0.33333333 </v>
   <v>       0.10000000       0.00000000       0.33333333 </v>
   <v>       0.20000000       0.00000000       0.33333333 </v>
   <v>       0.30000000       0.00000000       0.33333333 </v>
   <v>       0.40000000       0.00000000       0.33333333 </v>
   <v>       0.50000000       0.00000000       0.33333333 </v>
   <v>       0.10000000       0.10000000       0.33333333 </v>
   <v>       0.20000000       0.10000000       0.33333333 </v>
   <v>       0.30000000       0.10000000       0.33333333 </v>
   <v>       0.40000000       0.10000000       0.33333333 </v>
   <v>       0.20000000       0.20000000       0.33333333 </v>
   <v>       0.30000000       0.20000000       0.33333333 </v>
   <v>       0.40000000       0.20000000       0.33333333 </v>
   <v>       0.30000000       0.30000000       0.33333333 </v>
   <v>       0.00000000       0.00000000       0.50000000 </v>
   <v>       0.10000000       0.00000000       0.50000000 </v>
   <v>       0.20000000       0.00000000       0.50000000 </v>
   <v>       0.30000000       0.00000000       0.50000000 </v>
   <v>       0.40000000       0.00000000       0.50000000 </v>
   <v>       0.50000000       0.00000000       0.50000000 </v>
   <v>       0.10000000       0.10000000       0.50000000 </v>
   <v>       0.20000000       0.10000000       0.50000000 </v>
   <v>       0.30000000       0.10000000       0.50000000 </v>
   <v>       0.40000000       0.10000000       0.50000000 </v>
   <v>       0.20000000       0.20000000       0.50000000 </v>
   <v>       0.30000000       0.20000000       0.50000000 </v>
   <v>       0.40000000       0.20000000       0.50000000 </v>
   <v>       0.30000000       0.30000000       0.50000000 </v>
  </varray>
  <varray name="weights" >
   <v>       0.00166667 </v>
   <v>       0.01000000 </v>
   <v>       0.01000000 </v>
   <v>       0.01000000 </v>
   <v>       0.01000000 </v>
   <v>       0.00500000 </v>
   <v>       0.01000000 </v>
   <v>       0.02000000 </v>
   <v>       0.02000000 </v>
   <v>       0.02000000 </v>
   <v>       0.01000000 </v>
   <v>       0.02000000 </v>
   <v>       0.01000000 </v>
   <v>       0.01000000 </v>
   <v>       0.00333333 </v>
   <v>       0.02000000 </v>
   <v>       0.02000000 </v>
   <v>       0.02000000 </v>
   <v>       0.02000000 </v>
   <v>       0.01000000 </v>
   <v>       0.02000000 </v>
   <v>       0.04000000 </v>
   <v>       0.04000000 </v>
   <v>       0.04000000 </v>
   <v>       0.02000000 </v>
   <v>       0.04000000 </v>
   <v>       0.02000000 </v>
   <v>       0.02000000 </v>
   <v>       0.00333333 </v>
   <v>       0.02000000 </v>
   <v>       0.02000000 </v>
   <v>       0.02000000 </v>
   <v>       0.02000000 </v>
   <v>       0.01000000 </v>
   <v>       0.02000000 </v>
   <v>       0.04000000 </v>
   <v>       0.04000000 </v>
   <v>       0.04000000 </v>
   <v>       0.02000000 </v>
   <v>       0.04000000 </v>
   <v>       0.02000000 </v>
   <v>       0.02000000 </v>
   <v>       0.00166667 </v>
   <v>       0.01000000 </v>
   <v>       0.01000000 </v>
   <v>       0.01000000 </v>
   <v>       0.01000000 </v>
   <v>       0.00500000 </v>
   <v>       0.01000000 </v>
   <v>       0.02000000 </v>
   <v>       0.02000000 </v>
   <v>       0.02000000 </v>
   <v>       0.01000000 </v>
   <v>       0.02000000 </v>
   <v>       0.01000000 </v>
   <v>       0.01000000 </v>
  </varray>
  <varray name="tetrahedronlist"  type="int" >
   <v type="int" >        8       24       24       27       38 </v>
   <v type="int" >        8       24       26       27       38 </v>
   <v type="int" >        4       26       27       38       40 </v>
   <v type="int" >        4       24       27       38       38 </v>
   <v type="int" >        4       27       38       38       41 </v>
   <v type="int" >        8       27       38       40       41 </v>
   <v type="int" >        8       16       16       21       30 </v>
   <v type="int" >        8       16       17       21       30 </v>
   <v type="int" >        4       17       21       30       31 </v>
   <v type="int" >        4       16       21       30       30 </v>
   <v type="int" >        4       21       30       30       35 </v>
   <v type="int" >        8       21       30       31       35 </v>
   <v type="int" >        8       26       27       28       40 </v>
   <v type="int" >        8       26       26       28       40 </v>
   <v type="int" >        4       26       28       40       40 </v>
   <v type="int" >        4       27       28       40       41 </v>
   <v type="int" >        8       28       40       41       42 </v>
   <v type="int" >        4       28       40       40       42 </v>
   <v type="int" >        8       17       21       22       31 </v>
   <v type="int" >        8       17       18       22       31 </v>
   <v type="int" >        4       18       22       31       32 </v>
   <v type="int" >        4       21       22       31       35 </v>
   <v type="int" >        8       22       31       35       36 </v>
   <v type="int" >        8       22       31       32       36 </v>
   <v type="int" >        8       24       26       27       40 </v>
   <v type="int" >        4       24       27       38       40 </v>
   <v type="int" >        4       27       28       40       42 </v>
   <v type="int" >        8       27       40       41       42 </v>
   <v type="int" >        8       18       22       23       32 </v>
   <v type="int" >        8       18       19       23       32 </v>
   <v type="int" >        4       19       23       32       33 </v>
   <v type="int" >        4       22       23       32       36 </v>
   <v type="int" >        8       23       32       36       37 </v>
   <v type="int" >        8       23       32       33       37 </v>
   <v type="int" >        8       20       24       24       38 </v>
   <v type="int" >        4       20       24       34       38 </v>
   <v type="int" >        4       24       27       38       41 </v>
   <v type="int" >        8       24       38       38       41 </v>
   <v type="int" >        8       24       34       38       38 </v>
   <v type="int" >        8       19       23       24       33 </v>
   <v type="int" >        8       19       20       24       33 </v>
   <v type="int" >        4       20       24       33       34 </v>
   <v type="int" >        4       23       24       33       37 </v>
   <v type="int" >        8       24       33       37       38 </v>
   <v type="int" >        8       24       33       34       38 </v>
   <v type="int" >        8       19       20       24       34 </v>
   <v type="int" >        4       19       24       34       38 </v>
   <v type="int" >        8       19       33       34       38 </v>
   <v type="int" >        4       20       24       24       34 </v>
   <v type="int" >        4       19       24       33       34 </v>
   <v type="int" >        4       24       24       34       38 </v>
   <v type="int" >        8       19       23       24       38 </v>
   <v type="int" >        8       23       24       26       38 </v>
   <v type="int" >        4       23       26       38       40 </v>
   <v type="int" >        4       19       23       33       38 </v>
   <v type="int" >        8       23       33       37       38 </v>
   <v type="int" >        8       23       37       38       40 </v>
   <v type="int" >        8       18       19       23       33 </v>
   <v type="int" >        4       18       23       32       33 </v>
   <v type="int" >        4       23       24       33       38 </v>
   <v type="int" >        8       23       25       26       40 </v>
   <v type="int" >        8       25       26       26       40 </v>
   <v type="int" >        4       25       26       40       40 </v>
   <v type="int" >        4       23       25       37       40 </v>
   <v type="int" >        8       25       37       39       40 </v>
   <v type="int" >        4       25       39       40       40 </v>
   <v type="int" >        8       17       18       22       32 </v>
   <v type="int" >        4       17       22       31       32 </v>
   <v type="int" >        4       22       23       32       37 </v>
   <v type="int" >        8       22       32       36       37 </v>
   <v type="int" >        8       23       24       26       40 </v>
   <v type="int" >        4       23       24       38       40 </v>
   <v type="int" >        4       23       25       39       40 </v>
   <v type="int" >        8       23       37       39       40 </v>
   <v type="int" >        8       16       17       21       31 </v>
   <v type="int" >        4       16       21       30       31 </v>
   <v type="int" >        4       21       22       31       36 </v>
   <v type="int" >        8       21       31       35       36 </v>
   <v type="int" >        8       19       20       24       38 </v>
   <v type="int" >        4       19       20       34       38 </v>
   <v type="int" >        4       19       23       37       38 </v>
   <v type="int" >        8       19       33       37       38 </v>
   <v type="int" >        8       15       16       16       30 </v>
   <v type="int" >        4       15       16       29       30 </v>
   <v type="int" >        4       16       21       30       35 </v>
   <v type="int" >        8       16       30       30       35 </v>
   <v type="int" >        8       16       29       30       30 </v>
   <v type="int" >        4       15       16       16       29 </v>
   <v type="int" >        4       16       16       29       30 </v>
   <v type="int" >        8       37       38       40       52 </v>
   <v type="int" >        8       38       40       41       52 </v>
   <v type="int" >        4       40       41       52       55 </v>
   <v type="int" >        4       37       40       51       52 </v>
   <v type="int" >        8       40       51       52       54 </v>
   <v type="int" >        8       40       52       54       55 </v>
   <v type="int" >        8       30       31       35       44 </v>
   <v type="int" >        4       31       35       44       49 </v>
   <v type="int" >        8       31       44       45       49 </v>
   <v type="int" >        8       40       41       42       55 </v>
   <v type="int" >        4       41       42       42       55 </v>
   <v type="int" >        4       42       42       55       56 </v>
   <v type="int" >        4       40       42       54       55 </v>
   <v type="int" >        8       42       54       55       56 </v>
   <v type="int" >        8       42       55       56       56 </v>
   <v type="int" >        8       31       35       36       49 </v>
   <v type="int" >        4       35       36       36       49 </v>
   <v type="int" >        4       36       36       49       50 </v>
   <v type="int" >        4       31       36       45       49 </v>
   <v type="int" >        8       36       45       49       50 </v>
   <v type="int" >        8       36       49       50       50 </v>
   <v type="int" >        4       42       42       42       56 </v>
   <v type="int" >        8       41       42       42       56 </v>
   <v type="int" >        4       41       42       55       56 </v>
   <v type="int" >        4       42       42       56       56 </v>
   <v type="int" >        4       42       56       56       56 </v>
   <v type="int" >        8       36       36       39       50 </v>
   <v type="int" >        8       36       37       39       50 </v>
   <v type="int" >        4       37       39       50       51 </v>
   <v type="int" >        4       36       39       50       50 </v>
   <v type="int" >        4       39       50       50       53 </v>
   <v type="int" >        8       39       50       51       53 </v>
   <v type="int" >        8       38       40       41       55 </v>
   <v type="int" >        4       38       40       52       55 </v>
   <v type="int" >        4       40       42       55       56 </v>
   <v type="int" >        8       40       54       55       56 </v>
   <v type="int" >        8       37       39       40       51 </v>
   <v type="int" >        8       37       38       40       51 </v>
   <v type="int" >        4       38       40       51       52 </v>
   <v type="int" >        4       39       40       51       53 </v>
   <v type="int" >        8       40       51       53       54 </v>
   <v type="int" >        8       33       37       38       52 </v>
   <v type="int" >        4       33       37       47       52 </v>
   <v type="int" >        4       37       40       52       54 </v>
   <v type="int" >        8       37       51       52       54 </v>
   <v type="int" >        8       37       47       51       52 </v>
   <v type="int" >        8       38       38       41       52 </v>
   <v type="int" >        4       38       41       52       52 </v>
   <v type="int" >        4       40       41       52       54 </v>
   <v type="int" >        8       41       52       54       55 </v>
   <v type="int" >        4       41       52       52       55 </v>
   <v type="int" >        8       32       33       37       47 </v>
   <v type="int" >        4       32       37       47       51 </v>
   <v type="int" >        8       32       46       47       51 </v>
   <v type="int" >        8       32       36       37       51 </v>
   <v type="int" >        8       36       37       39       51 </v>
   <v type="int" >        4       36       39       51       53 </v>
   <v type="int" >        4       32       36       46       51 </v>
   <v type="int" >        8       36       46       50       51 </v>
   <v type="int" >        8       36       50       51       53 </v>
   <v type="int" >        4       36       39       50       51 </v>
   <v type="int" >        4       39       40       51       54 </v>
   <v type="int" >        8       39       51       53       54 </v>
   <v type="int" >        4       36       36       39       53 </v>
   <v type="int" >        8       36       37       39       53 </v>
   <v type="int" >        4       36       37       51       53 </v>
   <v type="int" >        4       36       36       50       53 </v>
   <v type="int" >        8       36       50       50       53 </v>
   <v type="int" >        8       35       36       36       50 </v>
   <v type="int" >        4       35       36       49       50 </v>
   <v type="int" >        4       36       39       50       53 </v>
   <v type="int" >        8       32       33       37       51 </v>
   <v type="int" >        4       32       33       47       51 </v>
   <v type="int" >        4       32       36       50       51 </v>
   <v type="int" >        8       32       46       50       51 </v>
   <v type="int" >        8       30       31       35       49 </v>
   <v type="int" >        4       30       31       44       49 </v>
   <v type="int" >        4       31       36       49       50 </v>
   <v type="int" >        8       31       45       49       50 </v>
   <v type="int" >        8       33       37       38       47 </v>
   <v type="int" >        4       37       38       47       52 </v>
   <v type="int" >        4       32       37       46       47 </v>
   <v type="int" >        8       37       46       47       51 </v>
   <v type="int" >        8       30       30       35       44 </v>
   <v type="int" >        4       30       35       44       44 </v>
   <v type="int" >        4       31       35       44       45 </v>
   <v type="int" >        8       35       44       45       49 </v>
   <v type="int" >        4       35       44       44       49 </v>
   <v type="int" >        8       37       50       51       53 </v>
   <v type="int" >        8       37       51       53       54 </v>
   <v type="int" >        4       37       40       53       54 </v>
   <v type="int" >        4       36       37       50       53 </v>
   <v type="int" >        8       37       39       40       53 </v>
   <v type="int" >        4       35       49       50       50 </v>
   <v type="int" >        8       35       45       49       50 </v>
   <v type="int" >        4       31       35       45       50 </v>
   <v type="int" >        4       35       36       50       50 </v>
   <v type="int" >        8       31       35       36       50 </v>
   <v type="int" >        8       40       53       54       54 </v>
   <v type="int" >        8       40       54       54       56 </v>
   <v type="int" >        4       40       42       54       56 </v>
   <v type="int" >        4       39       40       53       54 </v>
   <v type="int" >        8       39       40       40       54 </v>
   <v type="int" >        8       40       40       42       54 </v>
   <v type="int" >        8       31       45       46       50 </v>
   <v type="int" >        4       31       36       46       50 </v>
   <v type="int" >        8       31       32       36       46 </v>
   <v type="int" >        4       42       54       54       56 </v>
   <v type="int" >        4       40       42       54       54 </v>
   <v type="int" >        4       41       42       54       55 </v>
   <v type="int" >        8       40       41       42       54 </v>
   <v type="int" >        4       39       53       54       54 </v>
   <v type="int" >        4       39       40       54       54 </v>
   <v type="int" >        4       37       39       51       54 </v>
   <v type="int" >        8       37       39       40       54 </v>
   <v type="int" >        4       37       40       51       53 </v>
   <v type="int" >        4       40       40       53       54 </v>
   <v type="int" >        4       39       40       40       53 </v>
   <v type="int" >        4       40       41       55       56 </v>
   <v type="int" >        4       40       40       54       56 </v>
   <v type="int" >        4       40       40       42       56 </v>
   <v type="int" >        8       40       41       42       56 </v>
   <v type="int" >        8       37       46       50       51 </v>
   <v type="int" >        4       32       37       46       50 </v>
   <v type="int" >        4       37       39       50       53 </v>
   <v type="int" >        8       32       36       37       50 </v>
   <v type="int" >        4       41       55       56       56 </v>
   <v type="int" >        8       41       54       55       56 </v>
   <v type="int" >        4       40       41       54       56 </v>
   <v type="int" >        4       41       42       56       56 </v>
   <v type="int" >        8       32       45       46       50 </v>
   <v type="int" >        4       32       36       45       50 </v>
   <v type="int" >        8       31       32       36       45 </v>
   <v type="int" >        8       36       45       46       50 </v>
   <v type="int" >        4       32       36       45       46 </v>
   <v type="int" >        4       35       36       45       49 </v>
   <v type="int" >        8       31       35       36       45 </v>
   <v type="int" >        4       31       36       45       46 </v>
   <v type="int" >        4       36       37       46       51 </v>
   <v type="int" >        8       32       36       37       46 </v>
   <v type="int" >        4       32       37       50       51 </v>
   <v type="int" >        4       31       32       45       50 </v>
   <v type="int" >        8       31       32       36       50 </v>
   <v type="int" >        4       31       35       49       50 </v>
   <v type="int" >        4       31       32       46       50 </v>
   <v type="int" >        8       22       35       36       36 </v>
   <v type="int" >        8       22       36       36       39 </v>
   <v type="int" >        4       22       25       36       39 </v>
   <v type="int" >        4       21       22       35       36 </v>
   <v type="int" >        8       21       22       22       36 </v>
   <v type="int" >        8       22       22       25       36 </v>
   <v type="int" >        8       22       36       37       39 </v>
   <v type="int" >        4       22       22       36       39 </v>
   <v type="int" >        4       22       23       37       39 </v>
   <v type="int" >        8       22       23       25       39 </v>
   <v type="int" >        4       22       22       25       39 </v>
   <v type="int" >        8       25       36       37       39 </v>
   <v type="int" >        4       25       26       37       40 </v>
   <v type="int" >        4       22       25       36       37 </v>
   <v type="int" >        8       22       23       25       37 </v>
   <v type="int" >        8       23       25       26       37 </v>
   <v type="int" >        4       18       22       32       37 </v>
   <v type="int" >        4       22       25       37       39 </v>
   <v type="int" >        8       18       22       23       37 </v>
   <v type="int" >        8       26       37       38       40 </v>
   <v type="int" >        8       26       38       40       41 </v>
   <v type="int" >        4       26       27       38       41 </v>
   <v type="int" >        4       23       26       37       38 </v>
   <v type="int" >        8       18       32       33       37 </v>
   <v type="int" >        4       18       23       33       37 </v>
   <v type="int" >        8       26       37       39       40 </v>
   <v type="int" >        4       25       26       37       39 </v>
   <v type="int" >        4       24       26       37       38 </v>
   <v type="int" >        8       23       24       26       37 </v>
   <v type="int" >        8       26       40       41       42 </v>
   <v type="int" >        4       26       28       41       42 </v>
   <v type="int" >        4       24       26       38       41 </v>
   <v type="int" >        8       24       26       27       41 </v>
   <v type="int" >        8       26       27       28       41 </v>
   <v type="int" >        4       25       36       36       39 </v>
   <v type="int" >        4       22       25       36       36 </v>
   <v type="int" >        4       23       25       36       37 </v>
   <v type="int" >        8       22       23       25       36 </v>
   <v type="int" >        8       28       41       42       42 </v>
   <v type="int" >        4       28       42       42       42 </v>
   <v type="int" >        4       28       28       42       42 </v>
   <v type="int" >        4       27       28       41       42 </v>
   <v type="int" >        8       27       28       28       42 </v>
   <v type="int" >        4       28       28       28       42 </v>
   <v type="int" >        4       17       22       31       35 </v>
   <v type="int" >        4       22       22       35       36 </v>
   <v type="int" >        4       21       22       22       35 </v>
   <v type="int" >        8       17       21       22       35 </v>
   <v type="int" >        4       26       28       40       41 </v>
   <v type="int" >        4       28       28       41       42 </v>
   <v type="int" >        4       27       28       28       41 </v>
   <v type="int" >        8       17       30       31       35 </v>
   <v type="int" >        4       17       21       30       35 </v>
   <v type="int" >        8       17       31       35       36 </v>
   <v type="int" >        4       17       22       35       36 </v>
   <v type="int" >        4       16       17       30       35 </v>
   <v type="int" >        8       16       17       21       35 </v>
   <v type="int" >        8       18       32       36       37 </v>
   <v type="int" >        4       18       22       36       37 </v>
   <v type="int" >        4       18       19       33       37 </v>
   <v type="int" >        8       18       19       23       37 </v>
   <v type="int" >        8        7       16       17       21 </v>
   <v type="int" >        8        7       17       21       22 </v>
   <v type="int" >        4        7        8       17       22 </v>
   <v type="int" >        4        2        7       16       17 </v>
   <v type="int" >        8        2        3        7       17 </v>
   <v type="int" >        8        3        7        8       17 </v>
   <v type="int" >        8        9       23       24       26 </v>
   <v type="int" >        8        9       23       25       26 </v>
   <v type="int" >        4        9       11       25       26 </v>
   <v type="int" >        4        9       10       24       26 </v>
   <v type="int" >        8        9       10       12       26 </v>
   <v type="int" >        8        9       11       12       26 </v>
   <v type="int" >        8        8       17       18       22 </v>
   <v type="int" >        8        8       18       22       23 </v>
   <v type="int" >        4        8        9       18       23 </v>
   <v type="int" >        4        3        8       17       18 </v>
   <v type="int" >        8        3        4        8       18 </v>
   <v type="int" >        8        4        8        9       18 </v>
   <v type="int" >        4       11       25       26       26 </v>
   <v type="int" >        8       11       23       25       26 </v>
   <v type="int" >        4        9       11       23       26 </v>
   <v type="int" >        4       11       12       26       26 </v>
   <v type="int" >        8       11       12       12       26 </v>
   <v type="int" >        8        9       18       19       23 </v>
   <v type="int" >        8        9       19       23       24 </v>
   <v type="int" >        4        9       10       19       24 </v>
   <v type="int" >        4        4        9       18       19 </v>
   <v type="int" >        8        4        5        9       19 </v>
   <v type="int" >        8        5        9       10       19 </v>
   <v type="int" >        4        5        9       19       24 </v>
   <v type="int" >        4        9       12       24       26 </v>
   <v type="int" >        8        9       10       12       24 </v>
   <v type="int" >        8        5        9       10       24 </v>
   <v type="int" >        8       10       19       20       24 </v>
   <v type="int" >        8       10       20       24       24 </v>
   <v type="int" >        4       10       10       20       24 </v>
   <v type="int" >        4        5       10       19       20 </v>
   <v type="int" >        8        5        6       10       20 </v>
   <v type="int" >        4        6       10       10       20 </v>
   <v type="int" >        8        5       19       20       24 </v>
   <v type="int" >        4        5       10       20       24 </v>
   <v type="int" >        8       10       19       23       24 </v>
   <v type="int" >        4        9       10       19       23 </v>
   <v type="int" >        4        6       10       19       20 </v>
   <v type="int" >        8        5        6       10       19 </v>
   <v type="int" >        8       10       24       24       27 </v>
   <v type="int" >        4       10       13       24       27 </v>
   <v type="int" >        4        6       10       20       24 </v>
   <v type="int" >        8        6       10       10       24 </v>
   <v type="int" >        8       10       10       13       24 </v>
   <v type="int" >        8        9       18       22       23 </v>
   <v type="int" >        4        8        9       18       22 </v>
   <v type="int" >        4        5        9       18       19 </v>
   <v type="int" >        8        4        5        9       18 </v>
   <v type="int" >        8       13       24       26       27 </v>
   <v type="int" >        8       13       26       27       28 </v>
   <v type="int" >        4       13       14       26       28 </v>
   <v type="int" >        4       10       13       24       26 </v>
   <v type="int" >        8       10       12       13       26 </v>
   <v type="int" >        8       12       13       14       26 </v>
   <v type="int" >        8        8       17       21       22 </v>
   <v type="int" >        4        7        8       17       21 </v>
   <v type="int" >        4        4        8       17       18 </v>
   <v type="int" >        8        3        4        8       17 </v>
   <v type="int" >        4       14       26       26       28 </v>
   <v type="int" >        8       14       26       27       28 </v>
   <v type="int" >        4       13       14       26       27 </v>
   <v type="int" >        4       12       14       26       26 </v>
   <v type="int" >        8       12       12       14       26 </v>
   <v type="int" >        4        7       16       16       21 </v>
   <v type="int" >        4        2        7       16       16 </v>
   <v type="int" >        4        3        7       16       17 </v>
   <v type="int" >        8        2        3        7       16 </v>
   <v type="int" >        8        2        2        7       16 </v>
   <v type="int" >        4       13       24       24       27 </v>
   <v type="int" >        4       10       13       24       24 </v>
   <v type="int" >        4       12       13       24       26 </v>
   <v type="int" >        8       10       12       13       24 </v>
   <v type="int" >        8        2       15       16       16 </v>
   <v type="int" >        4        2        2       15       16 </v>
   <v type="int" >        4        1        2        2       15 </v>
   <v type="int" >        8        2       16       16       21 </v>
   <v type="int" >        4        2        7       16       21 </v>
   <v type="int" >        4        1        2       15       16 </v>
   <v type="int" >        8        1        2        2       16 </v>
   <v type="int" >        8        5       19       23       24 </v>
   <v type="int" >        4        5        9       23       24 </v>
   <v type="int" >        4        5        6       20       24 </v>
   <v type="int" >        8        5        6       10       24 </v>
   <v type="int" >        8       10       24       26       27 </v>
   <v type="int" >        4       10       12       26       27 </v>
   <v type="int" >        4       10       10       24       27 </v>
   <v type="int" >        4       10       10       13       27 </v>
   <v type="int" >        8       10       12       13       27 </v>
   <v type="int" >        8        2       16       17       21 </v>
   <v type="int" >        4        2        3       17       21 </v>
   <v type="int" >        4        2        2       16       21 </v>
   <v type="int" >        4        2        2        7       21 </v>
   <v type="int" >        8        2        3        7       21 </v>
   <v type="int" >        8       12       26       27       28 </v>
   <v type="int" >        8       12       26       26       28 </v>
   <v type="int" >        4       12       12       26       28 </v>
   <v type="int" >        4       12       13       27       28 </v>
   <v type="int" >        8       12       13       14       28 </v>
   <v type="int" >        4       12       12       14       28 </v>
   <v type="int" >        8        3       17       21       22 </v>
   <v type="int" >        8        3       17       18       22 </v>
   <v type="int" >        4        3        4       18       22 </v>
   <v type="int" >        4        3        7       21       22 </v>
   <v type="int" >        8        3        7        8       22 </v>
   <v type="int" >        8        3        4        8       22 </v>
   <v type="int" >        8       12       24       26       27 </v>
   <v type="int" >        4       10       12       24       27 </v>
   <v type="int" >        4       12       14       27       28 </v>
   <v type="int" >        8       12       13       14       27 </v>
   <v type="int" >        8        4       18       22       23 </v>
   <v type="int" >        8        4       18       19       23 </v>
   <v type="int" >        4        4        5       19       23 </v>
   <v type="int" >        4        4        8       22       23 </v>
   <v type="int" >        8        4        8        9       23 </v>
   <v type="int" >        8        4        5        9       23 </v>
   <v type="int" >        8        6       19       20       24 </v>
   <v type="int" >        4        6       10       19       24 </v>
   <v type="int" >        4        6       20       24       24 </v>
   <v type="int" >        4        5        6       19       24 </v>
   <v type="int" >        4        6       10       24       24 </v>
   <v type="int" >        8       10       23       24       26 </v>
   <v type="int" >        4       10       12       23       26 </v>
   <v type="int" >        4        5       10       19       23 </v>
   <v type="int" >        8        5        9       10       23 </v>
   <v type="int" >        8        9       10       12       23 </v>
   <v type="int" >        8        5       18       19       23 </v>
   <v type="int" >        4        4        5       18       23 </v>
   <v type="int" >        4        5       10       23       24 </v>
   <v type="int" >        8       12       23       25       26 </v>
   <v type="int" >        8       12       25       26       26 </v>
   <v type="int" >        4       12       12       25       26 </v>
   <v type="int" >        4        9       12       23       25 </v>
   <v type="int" >        8        9       11       12       25 </v>
   <v type="int" >        4       11       12       12       25 </v>
   <v type="int" >        8        4       17       18       22 </v>
   <v type="int" >        4        3        4       17       22 </v>
   <v type="int" >        4        4        9       22       23 </v>
   <v type="int" >        8        4        8        9       22 </v>
   <v type="int" >        8       12       23       24       26 </v>
   <v type="int" >        4       10       12       23       24 </v>
   <v type="int" >        4       11       12       23       25 </v>
   <v type="int" >        8        9       11       12       23 </v>
   <v type="int" >        8        3       16       17       21 </v>
   <v type="int" >        4        2        3       16       21 </v>
   <v type="int" >        4        3        8       21       22 </v>
   <v type="int" >        8        3        7        8       21 </v>
   <v type="int" >        4        1       15       16       16 </v>
   <v type="int" >        4        1        2       16       16 </v>
   <v type="int" >        4       12       13       24       27 </v>
   <v type="int" >        4        9       12       23       24 </v>
   <v type="int" >        4        3        7       16       21 </v>
   <v type="int" >        4       13       14       14       27 </v>
   <v type="int" >        4       14       14       27       28 </v>
   <v type="int" >        4       12       14       26       27 </v>
   <v type="int" >        8       14       27       28       28 </v>
   <v type="int" >        4        7        8        8       21 </v>
   <v type="int" >        4        8        8       21       22 </v>
   <v type="int" >        4        3        8       17       21 </v>
   <v type="int" >        8        8       21       22       22 </v>
   <v type="int" >        4       14       14       14       28 </v>
   <v type="int" >        8       13       14       14       28 </v>
   <v type="int" >        4       13       14       27       28 </v>
   <v type="int" >        4       14       14       28       28 </v>
   <v type="int" >        4       14       28       28       28 </v>
   <v type="int" >        8        8        8       11       22 </v>
   <v type="int" >        8        8        9       11       22 </v>
   <v type="int" >        4        9       11       22       23 </v>
   <v type="int" >        4        8       11       22       22 </v>
   <v type="int" >        4       11       22       22       25 </v>
   <v type="int" >        8       11       22       23       25 </v>
   <v type="int" >        4        4        9       19       23 </v>
   <v type="int" >        8        8        9       11       23 </v>
   <v type="int" >        4        8       11       23       25 </v>
   <v type="int" >        4        4        8       18       23 </v>
   <v type="int" >        8        8       22       23       25 </v>
   <v type="int" >        4        8       11       22       23 </v>
   <v type="int" >        4       11       12       23       26 </v>
   <v type="int" >        4        8        8       11       25 </v>
   <v type="int" >        8        8        9       11       25 </v>
   <v type="int" >        4        8        9       23       25 </v>
   <v type="int" >        4        8        8       22       25 </v>
   <v type="int" >        8        8       22       22       25 </v>
   <v type="int" >        8        7        8        8       22 </v>
   <v type="int" >        4        7        8       21       22 </v>
   <v type="int" >        4        8       11       22       25 </v>
   <v type="int" >        4       26       28       40       42 </v>
   <v type="int" >        4       25       26       39       40 </v>
   <v type="int" >        8       26       39       40       40 </v>
   <v type="int" >        8       26       40       40       42 </v>
   <v type="int" >        4       18       22       31       36 </v>
   <v type="int" >        8       18       31       32       36 </v>
   <v type="int" >        8       26       27       28       42 </v>
   <v type="int" >        4       27       28       42       42 </v>
   <v type="int" >        4       26       27       40       42 </v>
   <v type="int" >        4       27       41       42       42 </v>
   <v type="int" >        8       18       22       23       36 </v>
   <v type="int" >        4       23       25       36       39 </v>
   <v type="int" >        4       18       23       32       36 </v>
   <v type="int" >        8       23       36       37       39 </v>
   <v type="int" >        4       26       26       28       42 </v>
   <v type="int" >        4       26       26       40       42 </v>
   <v type="int" >        4       26       27       41       42 </v>
   <v type="int" >        8       23       25       26       39 </v>
   <v type="int" >        4       25       26       26       39 </v>
   <v type="int" >        4       26       26       39       40 </v>
   <v type="int" >        4       23       26       37       39 </v>
   <v type="int" >        4       17       22       32       36 </v>
   <v type="int" >        8       17       31       32       36 </v>
   <v type="int" >        8       17       21       22       36 </v>
   <v type="int" >        4       21       22       36       36 </v>
   <v type="int" >        4       17       21       31       36 </v>
   <v type="int" >        4       21       35       36       36 </v>
   <v type="int" >        4       22       23       36       39 </v>
   <v type="int" >        4       23       26       39       40 </v>
   <v type="int" >        8       17       18       22       36 </v>
   <v type="int" >        4       17       18       32       36 </v>
   <v type="int" >        4       17       21       35       36 </v>
   <v type="int" >        4       17       18       31       36 </v>
   <v type="int" >        4       18       23       36       37 </v>
   <v type="int" >        8       37       38       40       54 </v>
   <v type="int" >        8       38       40       41       54 </v>
   <v type="int" >        4       38       41       54       55 </v>
   <v type="int" >        4       37       38       51       54 </v>
   <v type="int" >        8       38       51       52       54 </v>
   <v type="int" >        8       38       52       54       55 </v>
   <v type="int" >        8       32       33       37       46 </v>
   <v type="int" >        4       33       37       46       51 </v>
   <v type="int" >        8       33       46       47       51 </v>
   <v type="int" >        4       38       38       41       55 </v>
   <v type="int" >        4       38       40       54       55 </v>
   <v type="int" >        4       38       38       52       55 </v>
   <v type="int" >        8       38       52       52       55 </v>
   <v type="int" >        8       33       37       38       51 </v>
   <v type="int" >        4       38       40       51       54 </v>
   <v type="int" >        4       33       38       47       51 </v>
   <v type="int" >        8       38       47       51       52 </v>
   <v type="int" >        4       37       39       53       54 </v>
   <v type="int" >        4       37       38       52       54 </v>
   <v type="int" >        4       41       42       54       56 </v>
   <v type="int" >        4       38       41       52       54 </v>
   <v type="int" >        8       30       31       35       45 </v>
   <v type="int" >        4       30       35       45       49 </v>
   <v type="int" >        8       30       44       45       49 </v>
   <v type="int" >        4       30       30       35       49 </v>
   <v type="int" >        4       30       31       45       49 </v>
   <v type="int" >        4       30       30       44       49 </v>
   <v type="int" >        8       30       44       44       49 </v>
   <v type="int" >        4       32       33       46       51 </v>
   <v type="int" >        4       33       38       51       52 </v>
   <v type="int" >        8       33       47       51       52 </v>
   <v type="int" >        4       35       36       45       50 </v>
   <v type="int" >        4       30       35       44       45 </v>
   <v type="int" >        4       36       37       46       50 </v>
   <v type="int" >        4       33       37       46       47 </v>
   <v type="int" >        8       38       47       48       52 </v>
   <v type="int" >        8       38       48       52       52 </v>
   <v type="int" >        4       38       38       48       52 </v>
   <v type="int" >        4       33       38       47       48 </v>
   <v type="int" >        8       33       34       38       48 </v>
   <v type="int" >        4       34       38       38       48 </v>
   <v type="int" >        8       33       47       48       52 </v>
   <v type="int" >        4       33       38       48       52 </v>
   <v type="int" >        4       37       38       47       51 </v>
   <v type="int" >        4       34       38       47       48 </v>
   <v type="int" >        8       33       34       38       47 </v>
   <v type="int" >        4       38       41       52       55 </v>
   <v type="int" >        4       34       38       48       52 </v>
   <v type="int" >        8       34       38       38       52 </v>
   <v type="int" >        8       30       43       44       44 </v>
   <v type="int" >        4       30       30       43       44 </v>
   <v type="int" >        4       29       30       30       43 </v>
   <v type="int" >        4       30       35       44       49 </v>
   <v type="int" >        4       29       30       43       44 </v>
   <v type="int" >        8       29       30       30       44 </v>
   <v type="int" >        4       33       37       51       52 </v>
   <v type="int" >        4       33       34       48       52 </v>
   <v type="int" >        8       33       34       38       52 </v>
   <v type="int" >        8       16       30       31       35 </v>
   <v type="int" >        4       16       17       31       35 </v>
   <v type="int" >        4       16       16       30       35 </v>
   <v type="int" >        4       16       16       21       35 </v>
   <v type="int" >        8       24       38       40       41 </v>
   <v type="int" >        4       24       26       40       41 </v>
   <v type="int" >        4       24       24       38       41 </v>
   <v type="int" >        4       24       24       27       41 </v>
   <v type="int" >        4       20       34       38       38 </v>
   <v type="int" >        8       20       33       34       38 </v>
   <v type="int" >        4       19       20       33       38 </v>
   <v type="int" >        4       20       24       38       38 </v>
   <v type="int" >        4       20       24       33       38 </v>
   <v type="int" >        8       19       32       33       37 </v>
   <v type="int" >        4       18       19       32       37 </v>
   <v type="int" >        4       19       24       37       38 </v>
   <v type="int" >        8       19       23       24       37 </v>
   <v type="int" >        8       24       37       38       40 </v>
   <v type="int" >        4       24       26       37       40 </v>
   <v type="int" >        4       19       24       33       37 </v>
   <v type="int" >        4       15       29       30       30 </v>
   <v type="int" >        4       15       16       30       30 </v>
   <v type="int" >        4        2        7       17       21 </v>
   <v type="int" >        4       10       13       26       27 </v>
   <v type="int" >        4        9       10       23       26 </v>
   <v type="int" >        4        7       21       22       22 </v>
   <v type="int" >        4        7        8       22       22 </v>
   <v type="int" >        4        3        7       17       22 </v>
   <v type="int" >        4       13       27       28       28 </v>
   <v type="int" >        4       13       14       28       28 </v>
   <v type="int" >        4       12       13       26       28 </v>
   <v type="int" >        4        5        9       18       23 </v>
   <v type="int" >        8        9       22       23       25 </v>
   <v type="int" >        4        8        9       22       25 </v>
   <v type="int" >        4        9       12       25       26 </v>
   <v type="int" >        4        9       11       22       25 </v>
   <v type="int" >        4        4        9       18       22 </v>
   <v type="int" >        4        4        8       17       22 </v>
   <v type="int" >        4       12       14       26       28 </v>
   <v type="int" >        4       11       12       25       26 </v>
   <v type="int" >        4        3        8       18       22 </v>
   <v type="int" >        4       19       23       32       37 </v>
   <v type="int" >        4       24       27       40       41 </v>
   <v type="int" >        4       23       24       37       40 </v>
   <v type="int" >        4       16       21       31       35 </v>
   <v type="int" >        4       34       38       47       52 </v>
   <v type="int" >        8       34       47       48       52 </v>
   <v type="int" >        4       34       38       52       52 </v>
   <v type="int" >        4       33       34       47       52 </v>
   <v type="int" >        4       34       48       52       52 </v>
   <v type="int" >        4       29       30       44       44 </v>
   <v type="int" >        4       29       43       44       44 </v>
  </varray>
  <i name="volumeweight">      0.00027778 </i>
 </kpoints>
 <parameters>
  <separator name="general" >
   <i type="string" name="SYSTEM">unknown system</i>
   <i type="logical" name="LCOMPAT"> F  </i>
  </separator>
  <separator name="electronic" >
   <i type="string" name="PREC">normal</i>
   <i name="ENMAX">    550.00000000</i>
   <i name="ENAUG">    627.11200000</i>
   <i name="EDIFF">      0.00010000</i>
   <i type="int" name="IALGO">    38</i>
   <i type="int" name="IWAVPR">    11</i>
   <i type="int" name="NBANDS">    24</i>
   <i type="int" name="NBANDSLOW">    -1</i>
   <i type="int" name="NBANDSHIGH">    -1</i>
   <i name="NELECT">     16.00000000</i>
   <i type="int" name="TURBO">     0</i>
   <i type="int" name="IRESTART">     0</i>
   <i type="int" name="NREBOOT">     0</i>
   <i type="int" name="NMIN">     0</i>
   <i name="EREF">      0.00000000</i>
   <separator name="electronic smearing" >
    <i type="int" name="ISMEAR">    -5</i>
    <i name="SIGMA">      0.20000000</i>
    <i name="KSPACING">      0.50000000</i>
    <i type="logical" name="KGAMMA"> T  </i>
    <i type="logical" name="KBLOWUP"> T  </i>
   </separator>
   <separator name="electronic projectors" >
    <i type="logical" name="LREAL"> F  </i>
    <v name="ROPT">      0.00000000      0.00000000</v>
    <i type="int" name="LMAXPAW">  -100</i>
    <i type="int" name="LMAXMIX">     2</i>
    <i type="logical" name="NLSPLINE"> F  </i>
   </separator>
   <separator name="electronic startup" >
    <i type="int" name="ISTART">     0</i>
    <i type="int" name="ICHARG">     2</i>
    <i type="int" name="INIWAV">     1</i>
   </separator>
   <separator name="electronic spin" >
    <i type="int" name="ISPIN">     1</i>
    <i type="logical" name="LNONCOLLINEAR"> F  </i>
    <v name="MAGMOM">      1.00000000      1.00000000      1.00000000      1.00000000</v>
    <i name="NUPDOWN">     -1.00000000</i>
    <i type="logical" name="LSORBIT"> F  </i>
    <v name="SAXIS">      0.00000000      0.00000000      1.00000000</v>
    <i type="logical" name="LSPIRAL"> F  </i>
    <v name="QSPIRAL">      0.00000000      0.00000000      0.00000000</v>
    <i type="logical" name="LZEROZ"> F  </i>
   </separator>
   <separator name="electronic exchange-correlation" >
    <i type="logical" name="LASPH"> F  </i>
   </separator>
   <separator name="electronic convergence" >
    <i type="int" name="NELM">    60</i>
    <i type="int" name="NELMDL">    -5</i>
    <i type="int" name="NELMIN">     2</i>
    <i name="ENINI">    550.00000000</i>
    <separator name="electronic convergence detail" >
     <i type="logical" name="LDIAG"> T  </i>
     <i type="logical" name="LSUBROT"> F  </i>
     <i name="WEIMIN">      0.00100000</i>
     <i name="EBREAK">      0.00000104</i>
     <i name="DEPER">      0.30000000</i>
     <i type="int" name="NRMM">     4</i>
     <i name="TIME">      0.40000000</i>
    </separator>
   </separator>
   <separator name="electronic mixer" >
    <i name="AMIX">      0.40000000</i>
    <i name="BMIX">      1.00000000</i>
    <i name="AMIN">      0.10000000</i>
    <i name="AMIX_MAG">      1.60000000</i>
    <i name="BMIX_MAG">      1.00000000</i>
    <separator name="electronic mixer details" >
     <i type="int" name="IMIX">     4</i>
     <i type="logical" name="MIXFIRST"> F  </i>
     <i type="int" name="MAXMIX">   -45</i>
     <i name="WC">    100.00000000</i>
     <i type="int" name="INIMIX">     1</i>
     <i type="int" name="MIXPRE">     1</i>
     <i type="int" name="MREMOVE">     5</i>
    </separator>
   </separator>
   <separator name="electronic dipolcorrection" >
    <i type="logical" name="LDIPOL"> F  </i>
    <i type="logical" name="LMONO"> F  </i>
    <i type="int" name="IDIPOL">     0</i>
    <i name="EPSILON">      1.00000000</i>
    <v name="DIPOL">   -100.00000000   -100.00000000   -100.00000000</v>
    <i name="EFIELD">      0.00000000</i>
    <i type="logical" name="LVACPOTAV"> F  </i>
   </separator>
  </separator>
  <separator name="grids" >
   <i type="int" name="NGX">    24</i>
   <i type="int" name="NGY">    24</i>
   <i type="int" name="NGZ">    36</i>
   <i type="int" name="NGXF">    48</i>
   <i type="int" name="NGYF">    48</i>
   <i type="int" name="NGZF">    72</i>
   <i type="logical" name="ADDGRID"> F  </i>
  </separator>
  <separator name="ionic" >
   <i type="int" name="NSW">    60</i>
   <i type="int" name="IBRION">     2</i>
   <i type="int" name="MDALGO">     0</i>
   <i type="int" name="ISIF">     3</i>
   <i name="PSTRESS">      0.00000000</i>
   <i name="EDIFFG">     -0.00100000</i>
   <i type="int" name="NFREE">     1</i>
   <i name="POTIM">      0.50000000</i>
   <i name="SMASS">     -3.00000000</i>
   <i name="SCALEE">      1.00000000</i>
  </separator>
  <separator name="ionic md" >
   <i name="TEBEG">      0.00010000</i>
   <i name="TEEND">      0.00010000</i>
   <i type="int" name="NBLOCK">     1</i>
   <i type="int" name="KBLOCK">    60</i>
   <i type="int" name="NPACO">   256</i>
   <i name="APACO">     10.00000000</i>
  </separator>
  <separator name="symmetry" >
   <i type="int" name="ISYM">     2</i>
   <i name="SYMPREC">      0.00001000</i>
  </separator>
  <separator name="dos" >
   <i type="int" name="LORBIT">     0</i>
   <v name="RWIGS">     -1.00000000     -1.00000000</v>
   <i type="int" name="NEDOS">   301</i>
   <i name="EMIN">     10.00000000</i>
   <i name="EMAX">    -10.00000000</i>
   <i name="EFERMI">      0.00000000</i>
  </separator>
  <separator name="writing" >
   <i type="int" name="NWRITE">     2</i>
   <i type="logical" name="LWAVE"> T  </i>
   <i type="logical" name="LDOWNSAMPLE"> F  </i>
   <i type="logical" name="LCHARG"> T  </i>
   <i type="logical" name="LPARD"> F  </i>
   <i type="logical" name="LVTOT"> F  </i>
   <i type="logical" name="LVHAR"> F  </i>
   <i type="logical" name="LELF"> F  </i>
   <i type="logical" name="LOPTICS"> F  </i>
   <v name="STM">      0.00000000      0.00000000      0.00000000      0.00000000      0.00000000      0.00000000      0.00000000</v>
  </separator>
  <separator name="performance" >
   <i type="int" name="NPAR">    24</i>
   <i type="int" name="NSIM">     4</i>
   <i type="int" name="NBLK">    -1</i>
   <i type="logical" name="LPLANE"> T  </i>
   <i type="logical" name="LSCALAPACK"> T  </i>
   <i type="logical" name="LSCAAWARE"> F  </i>
   <i type="logical" name="LSCALU"> F  </i>
   <i type="logical" name="LASYNC"> F  </i>
   <i type="logical" name="LORBITALREAL"> F  </i>
  </separator>
  <separator name="miscellaneous" >
   <i type="int" name="IDIOT">     3</i>
   <i type="int" name="PHON_NSTRUCT">    -1</i>
   <i type="logical" name="LMUSIC"> F  </i>
   <v name="POMASS">    114.82000000     14.00100000</v>
   <v name="DARWINR">      0.00000000      0.00000000</v>
   <v name="DARWINV">      1.00000000      1.00000000</v>
   <i type="logical" name="LCORR"> T  </i>
  </separator>
  <i type="logical" name="GGA_COMPAT"> T  </i>
  <i type="logical" name="LBERRY"> F  </i>
  <i type="int" name="ICORELEVEL">     0</i>
  <i type="logical" name="LDAU"> F  </i>
  <i type="int" name="I_CONSTRAINED_M">     0</i>
  <separator name="electronic exchange-correlation" >
   <i type="string" name="GGA    ">PS</i>
   <i type="string" name="XC_C">1</i>
   <i type="int" name="VOSKOWN">     0</i>
   <i type="logical" name="LHFCALC"> F  </i>
   <i type="string" name="PRECFOCK"></i>
   <i type="logical" name="LSYMGRAD"> F  </i>
   <i type="logical" name="LHFONE"> F  </i>
   <i type="logical" name="LRHFCALC"> F  </i>
   <i type="logical" name="LTHOMAS"> F  </i>
   <i type="logical" name="LMODELHF"> F  </i>
   <i type="logical" name="LFOCKACE"> F  </i>
   <i name="ENCUT4O">     -1.00000000</i>
   <i type="int" name="EXXOEP">     0</i>
   <i type="int" name="FOURORBIT">     0</i>
   <i name="AEXX">      0.00000000</i>
   <i name="HFALPHA">      0.00000000</i>
   <i name="MCALPHA">      0.00000000</i>
   <i name="ALDAX">      1.00000000</i>
   <i name="AGGAX">      1.00000000</i>
   <i name="AMGGAX">      1.00000000</i>
   <i name="ALDAC">      1.00000000</i>
   <i name="AGGAC">      1.00000000</i>
   <i name="AMGGAC">      1.00000000</i>
   <i type="int" name="NKREDX">     1</i>
   <i type="int" name="NKREDY">     1</i>
   <i type="int" name="NKREDZ">     1</i>
   <i type="logical" name="SHIFTRED"> F  </i>
   <i type="logical" name="ODDONLY"> F  </i>
   <i type="logical" name="EVENONLY"> F  </i>
   <i type="int" name="LMAXFOCK">     0</i>
   <i type="int" name="NMAXFOCKAE">     0</i>
   <i type="logical" name="LFOCKAEDFT"> F  </i>
   <i name="HFSCREEN">      0.00000000</i>
   <i name="HFSCREENC">      0.00000000</i>
   <i type="int" name="NBANDSGWLOW">     0</i>
  </separator>
  <separator name="vdW DFT" >
   <i type="logical" name="LUSE_VDW"> F  </i>
   <i type="int" name="IVDW_NL">    -1</i>
   <i type="logical" name="LSPIN_VDW"> F  </i>
   <i name="ZAB_VDW">     -0.84910000</i>
   <i name="GAMMA_VDW">      1.39626340</i>
   <i name="ALPHA_VDW">      0.00000000</i>
   <i name="PARAM1">      0.12340000</i>
   <i name="PARAM2">      1.00000000</i>
   <i name="BPARAM">      6.30000000</i>
   <i name="CPARAM">      0.00930000</i>
  </separator>
  <separator name="model GW" >
   <i type="int" name="MODEL_GW">     0</i>
   <i name="MODEL_EPS0">      9.65785333</i>
   <i name="MODEL_ALPHA">      1.00000000</i>
  </separator>
  <separator name="linear response parameters" >
   <i type="logical" name="LEPSILON"> F  </i>
   <i type="logical" name="LRPA"> F  </i>
   <i type="logical" name="LNABLA"> F  </i>
   <i type="logical" name="LVEL"> F  </i>
   <i name="CSHIFT">      0.10000000</i>
   <i name="OMEGAMAX">     -1.00000000</i>
   <i name="DEG_THRESHOLD">      0.00200000</i>
   <i name="RTIME">     -0.10000000</i>
   <i name="WPLASMAI">      0.00000000</i>
   <v name="DFIELD">      0.00000000      0.00000000      0.00000000</v>
   <v name="WPLASMA">      0.00000000      0.00000000      0.00000000      0.00000000      0.00000000      0.00000000      0.00000000      0.00000000      0.00000000</v>
  </separator>
  <separator name="orbital magnetization" >
   <i type="logical" name="NUCIND"> F  </i>
   <v name="MAGPOS">      0.00000000      0.00000000      0.00000000</v>
   <i type="logical" name="LNICSALL"> T  </i>
   <i type="logical" name="ORBITALMAG"> F  </i>
   <i type="logical" name="LMAGBLOCH"> F  </i>
   <i type="logical" name="LCHIMAG"> F  </i>
   <i type="logical" name="LGAUGE"> T  </i>
   <i type="int" name="MAGATOM">     0</i>
   <v name="MAGDIPOL">      0.00000000      0.00000000      0.00000000</v>
   <v name="AVECCONST">      0.00000000      0.00000000      0.00000000</v>
  </separator>
  <separator name="response functions" >
   <i type="logical" name="LALL_IN_ONE"> F  </i>
   <i type="int" name="IALL_IN_ONE">    -1</i>
   <i type="int" name="NBANDS_WAVE">    -1</i>
   <i type="logical" name="LFINITE_TEMPERATURE"> F  </i>
   <i type="logical" name="LADDER"> F  </i>
   <i type="logical" name="LRPAFORCE"> F  </i>
   <i type="logical" name="LFXC"> F  </i>
   <i type="logical" name="LHARTREE"> T  </i>
   <i type="int" name="IBSE">     0</i>
   <v type="int" name="KPOINT">    -1     0     0     0</v>
   <i type="logical" name="LTCTC"> F  </i>
   <i type="logical" name="LTCTE"> F  </i>
   <i type="logical" name="LTETE"> F  </i>
   <i type="logical" name="LTRIPLET"> F  </i>
   <i type="logical" name="LFXCEPS"> F  </i>
   <i type="logical" name="LFXHEG"> F  </i>
   <i type="int" name="NATURALO">     2</i>
   <i type="logical" name="LHOLEGF"> F  </i>
   <i type="logical" name="L2ORDER"> F  </i>
   <i type="logical" name="LDMP1"> F  </i>
   <i type="logical" name="LMP2LT"> F  </i>
   <i type="logical" name="LSMP2LT"> F  </i>
   <i type="logical" name="LGWLF"> F  </i>
   <i name="ENCUTGW">     -1.60000002</i>
   <i name="ENCUTGWSOFT">     -1.60000002</i>
   <i name="ENCUTLF">     -1.00000000</i>
   <i type="logical" name="ESF_SPLINES"> F  </i>
   <i name="ESF_CONV">      0.01000000</i>
   <i type="int" name="ESF_NINTER">    15</i>
   <i type="int" name="LMAXMP2">    -1</i>
   <i name="SCISSOR">      0.00000000</i>
   <i type="int" name="NOMEGA">     0</i>
   <i type="int" name="NOMEGAR">     0</i>
   <i type="int" name="NBANDSGW">    -1</i>
   <i type="int" name="NBANDSO">    -1</i>
   <i type="int" name="NBANDSV">    -1</i>
   <i type="int" name="NELMGW">     1</i>
   <i type="int" name="NELMHF">     1</i>
   <i type="int" name="DIM">     3</i>
   <i type="int" name="IESPILON">     4</i>
   <i type="int" name="ANTIRES">     0</i>
   <i name="OMEGAMAX">    -30.00000000</i>
   <i name="OMEGAMIN">    -30.00000000</i>
   <i name="OMEGATL">   -200.00000000</i>
   <i type="int" name="OMEGAGRID">     0</i>
   <i name="CSHIFT">     -0.10000000</i>
   <i type="logical" name="LSELFENERGY"> F  </i>
   <i type="logical" name="LSPECTRAL"> F  </i>
   <i type="logical" name="LSPECTRALGW"> F  </i>
   <i type="logical" name="LSINGLES"> F  </i>
   <i type="logical" name="LFERMIGW"> F  </i>
   <i type="logical" name="ODDONLYGW"> F  </i>
   <i type="logical" name="EVENONLYGW"> F  </i>
   <i type="int" name="NKREDLFX">     1</i>
   <i type="int" name="NKREDLFY">     1</i>
   <i type="int" name="NKREDLFZ">     1</i>
   <i type="int" name="MAXMEM">  2800</i>
   <i type="int" name="TELESCOPE">     0</i>
   <i type="int" name="NTAUPAR">    -1</i>
   <i type="int" name="NOMEGAPAR">    -1</i>
   <i name="DAMP_NEWTON">      0.80000001</i>
   <i name="LAMBDA">      1.00000000</i>
  </separator>
  <separator name="External order field" >
   <i name="OFIELD_KAPPA">      0.00000000</i>
   <v name="OFIELD_K">      0.00000000      0.00000000      0.00000000</v>
   <i name="OFIELD_Q6_NEAR">      0.00000000</i>
   <i name="OFIELD_Q6_FAR">      0.00000000</i>
   <i name="OFIELD_A">      0.00000000</i>
  </separator>
  <separator name="optional k-points parameters" >
   <i type="int" name="KPOINTS_OPT_MODE">     1</i>
   <i type="logical" name="LKPOINTS_OPT"> F  </i>
  </separator>
 </parameters>
 <atominfo>
  <atoms>       4 </atoms>
  <types>       2 </types>
  <array name="atoms" >
   <dimension dim="1">ion</dimension>
   <field type="string">element</field>
   <field type="int">atomtype</field>
   <set>
    <rc><c>In</c><c>   1</c></rc>
    <rc><c>In</c><c>   1</c></rc>
    <rc><c>N </c><c>   2</c></rc>
    <rc><c>N </c><c>   2</c></rc>
   </set>
  </array>
  <array name="atomtypes" >
   <dimension dim="1">type</dimension>
   <field type="int">atomspertype</field>
   <field type="string">element</field>
   <field>mass</field>
   <field>valence</field>
   <field type="string">pseudopotential</field>
   <set>
    <rc><c>   2</c><c>In</c><c>    114.82000000</c><c>      3.00000000</c><c>  PAW_PBE In 08Apr2002                  </c></rc>
    <rc><c>   2</c><c>N </c><c>     14.00100000</c><c>      5.00000000</c><c>  PAW_PBE N 08Apr2002                   </c></rc>
   </set>
  </array>
 </atominfo>
 <structure name="initialpos" >
  <crystal>
   <varray name="basis" >
    <v>       1.79365387      -3.10669963       0.00000000 </v>
    <v>       1.79365387       3.10669963       0.00000000 </v>
    <v>       0.00000000       0.00000000       5.77725379 </v>
   </varray>
   <i name="volume">     64.38568884 </i>
   <varray name="rec_basis" >
    <v>       0.27876058      -0.16094250       0.00000000 </v>
    <v>       0.27876058       0.16094250       0.00000000 </v>
    <v>       0.00000000       0.00000000       0.17309262 </v>
   </varray>
  </crystal>
  <varray name="positions" >
   <v>       0.33333333       0.66666667       0.99769314 </v>
   <v>       0.66666667       0.33333333       0.49769314 </v>
   <v>       0.33333333       0.66666667       0.37730686 </v>
   <v>       0.66666667       0.33333333       0.87730686 </v>
  </varray>
 </structure>
 <calculation>
  <scstep>
   <time name="dav">    0.27    0.27</time>
   <time name="total">    0.28    0.28</time>
   <energy>
    <i name="alphaZ">     10.18745171 </i>
    <i name="ewald">   -512.35975571 </i>
    <i name="hartreedc">   -149.48241253 </i>
    <i name="XCdc">    -70.98574617 </i>
    <i name="pawpsdc">    595.79953663 </i>
    <i name="pawaedc">   -480.38781515 </i>
    <i name="eentropy">      0.00000000 </i>
    <i name="bandstr">      4.45161536 </i>
    <i name="atom">    634.03677096 </i>
    <i name="e_fr_energy">     31.25964510 </i>
    <i name="e_wo_entrp">     31.25964510 </i>
    <i name="e_0_energy">     31.25964510 </i>
   </energy>
  </scstep>
  <scstep>
   <time name="dav">    0.43    0.44</time>
   <time name="total">    0.43    0.44</time>
   <energy>
    <i name="e_fr_energy">    -26.07072119 </i>
    <i name="e_wo_entrp">    -26.07072119 </i>
    <i name="e_0_energy">    -26.07072119 </i>
   </energy>
  </scstep>
  <scstep>
   <time name="dav">    0.29    0.29</time>
   <time name="total">    0.29    0.29</time>
   <energy>
    <i name="e_fr_energy">    -27.08278898 </i>
    <i name="e_wo_entrp">    -27.08278898 </i>
    <i name="e_0_energy">    -27.08278898 </i>
   </energy>
  </scstep>
  <scstep>
   <time name="dav">    0.66    0.67</time>
   <time name="total">    0.67    0.67</time>
   <energy>
    <i name="e_fr_energy">    -27.08502575 </i>
    <i name="e_wo_entrp">    -27.08502575 </i>
    <i name="e_0_energy">    -27.08502575 </i>
   </energy>
  </scstep>
  <scstep>
   <time name="dav">    0.28    0.29</time>
   <time name="total">    0.29    0.30</time>
   <energy>
    <i name="e_fr_energy">    -27.08502579 </i>
    <i name="e_wo_entrp">    -27.08502579 </i>
    <i name="e_0_energy">    -27.08502579 </i>
   </energy>
  </scstep>
  <scstep>
   <time name="dav">    0.36    0.36</time>
   <time name="total">    0.38    0.38</time>
   <energy>
    <i name="e_fr_energy">    -23.22147519 </i>
    <i name="e_wo_entrp">    -23.22147519 </i>
    <i name="e_0_energy">    -23.22147519 </i>
   </energy>
  </scstep>
  <scstep>
   <time name="dav">    0.32    0.32</time>
   <time name="total">    0.34    0.34</time>
   <energy>
    <i name="e_fr_energy">    -23.01188516 </i>
    <i name="e_wo_entrp">    -23.01188516 </i>
    <i name="e_0_energy">    -23.01188516 </i>
   </energy>
  </scstep>
  <scstep>
   <time name="dav">    0.53    0.54</time>
   <time name="total">    0.55    0.56</time>
   <energy>
    <i name="e_fr_energy">    -22.91831841 </i>
    <i name="e_wo_entrp">    -22.91831841 </i>
    <i name="e_0_energy">    -22.91831841 </i>
   </energy>
  </scstep>
  <scstep>
   <time name="dav">    0.37    0.37</time>
   <time name="total">    0.39    0.39</time>
   <energy>
    <i name="e_fr_energy">    -22.91728872 </i>
    <i name="e_wo_entrp">    -22.91728872 </i>
    <i name="e_0_energy">    -22.91728872 </i>
   </energy>
  </scstep>
  <scstep>
   <time name="dav">    0.63    0.64</time>
   <time name="total">    0.65    0.66</time>
   <energy>
    <i name="e_fr_energy">    -22.91751050 </i>
    <i name="e_wo_entrp">    -22.91751050 </i>
    <i name="e_0_energy">    -22.91751050 </i>
   </energy>
  </scstep>
  <scstep>
   <time name="dav">    0.24    0.24</time>
   <time name="total">    0.24    0.25</time>
   <energy>
    <i name="alphaZ">     10.18745171 </i>
    <i name="ewald">   -512.35975571 </i>
    <i name="hartreedc">   -181.27490270 </i>
    <i name="XCdc">    -68.02765499 </i>
    <i name="pawpsdc">   1591.16802172 </i>
    <i name="pawaedc">  -1477.05936607 </i>
    <i name="eentropy">      0.00000000 </i>
    <i name="bandstr">    -19.58807588 </i>
    <i name="atom">    634.03677096 </i>
    <i name="e_fr_energy">    -22.91751096 </i>
    <i name="e_wo_entrp">    -22.91751096 </i>
    <i name="e_0_energy">    -22.91751096 </i>
   </energy>
  </scstep>
  <structure>
   <crystal>
    <varray name="basis" >
     <v>       1.79365387      -3.10669963       0.00000000 </v>
     <v>       1.79365387       3.10669963       0.00000000 </v>
     <v>       0.00000000       0.00000000       5.77725379 </v>
    </varray>
    <i name="volume">     64.38568884 </i>
    <varray name="rec_basis" >
     <v>       0.27876058      -0.16094250       0.00000000 </v>
     <v>       0.27876058       0.16094250       0.00000000 </v>
     <v>       0.00000000       0.00000000       0.17309262 </v>
    </varray>
   </crystal>
   <varray name="positions" >
    <v>       0.33333333       0.66666667       0.99769314 </v>
    <v>       0.66666667       0.33333333       0.49769314 </v>
    <v>       0.33333333       0.66666667       0.37730686 </v>
    <v>       0.66666667       0.33333333       0.87730686 </v>
   </varray>
  </structure>
  <varray name="forces" >
   <v>       0.00000000       0.00000000      -0.00221939 </v>
   <v>       0.00000000       0.00000000      -0.00221939 </v>
   <v>       0.00000000      -0.00000000       0.00221939 </v>
   <v>      -0.00000000       0.00000000       0.00221939 </v>
  </varray>
  <varray name="stress" >
   <v>      -0.36482236       0.00000000      -0.00000000 </v>
   <v>       0.00000000      -0.36482236      -0.00000000 </v>
   <v>       0.00000000       0.00000000      -0.07505376 </v>
  </varray>
  <energy>
   <i name="e_fr_energy">    -22.91751096 </i>
   <i name="e_wo_entrp">    -22.91751096 </i>
   <i name="e_0_energy">    -22.91751096 </i>
  </energy>
  <time name="totalsc">    5.32    5.45</time>
 </calculation>
 <calculation>
  <scstep>
   <time name="dav">    0.42    0.42</time>
   <time name="total">    0.44    0.44</time>
   <energy>
    <i name="alphaZ">     10.19142609 </i>
    <i name="ewald">   -512.42682830 </i>
    <i name="hartreedc">   -181.30991796 </i>
    <i name="XCdc">    -68.02299313 </i>
    <i name="pawpsdc">   1592.01052086 </i>
    <i name="pawaedc">  -1477.90394664 </i>
    <i name="eentropy">      0.00000000 </i>
    <i name="bandstr">    -19.49254036 </i>
    <i name="atom">    634.03677096 </i>
    <i name="e_fr_energy">    -22.91750847 </i>
    <i name="e_wo_entrp">    -22.91750847 </i>
    <i name="e_0_energy">    -22.91750847 </i>
   </energy>
  </scstep>
  <scstep>
   <time name="dav">    0.18    0.18</time>
   <time name="total">    0.19    0.19</time>
   <energy>
    <i name="alphaZ">     10.19142609 </i>
    <i name="ewald">   -512.42682830 </i>
    <i name="hartreedc">   -181.26381666 </i>
    <i name="XCdc">    -68.02643936 </i>
    <i name="pawpsdc">   1592.66489287 </i>
    <i name="pawaedc">  -1478.55869065 </i>
    <i name="eentropy">      0.00000000 </i>
    <i name="bandstr">    -19.53481596 </i>
    <i name="atom">    634.03677096 </i>
    <i name="e_fr_energy">    -22.91750101 </i>
    <i name="e_wo_entrp">    -22.91750101 </i>
    <i name="e_0_energy">    -22.91750101 </i>
   </energy>
  </scstep>
  <structure>
   <crystal>
    <varray name="basis" >
     <v>       1.79333672      -3.10615030       0.00000000 </v>
     <v>       1.79333672       3.10615030      -0.00000000 </v>
     <v>       0.00000000       0.00000000       5.77704363 </v>
    </varray>
    <i name="volume">     64.36058019 </i>
    <varray name="rec_basis" >
     <v>       0.27880988      -0.16097096      -0.00000000 </v>
     <v>       0.27880988       0.16097096      -0.00000000 </v>
     <v>       0.00000000       0.00000000       0.17309892 </v>
    </varray>
   </crystal>
   <varray name="positions" >
    <v>       0.33333333       0.66666667       0.99767461 </v>
    <v>       0.66666667       0.33333333       0.49767461 </v>
    <v>       0.33333333       0.66666667       0.37732539 </v>
    <v>       0.66666667       0.33333333       0.87732539 </v>
   </varray>
  </structure>
  <varray name="forces" >
   <v>       0.00000000       0.00000000       0.00278570 </v>
   <v>       0.00000000       0.00000000       0.00278570 </v>
   <v>      -0.00000000      -0.00000000      -0.00278570 </v>
   <v>      -0.00000000       0.00000000      -0.00278570 </v>
  </varray>
  <varray name="stress" >
   <v>       0.94382198       0.00000000       0.00000000 </v>
   <v>       0.00000000       0.94382198      -0.00000000 </v>
   <v>       0.00000000      -0.00000000       0.12359209 </v>
  </varray>
  <energy>
   <i name="e_fr_energy">    -22.91750101 </i>
   <i name="e_wo_entrp">    -22.91750101 </i>
   <i name="e_0_energy">    -22.91750101 </i>
  </energy>
  <time name="totalsc">    1.33    1.41</time>
 </calculation>
 <calculation>
  <scstep>
   <time name="dav">    0.30    0.31</time>
   <time name="total">    0.32    0.33</time>
   <energy>
    <i name="alphaZ">     10.18863188 </i>
    <i name="ewald">   -512.37967635 </i>
    <i name="hartreedc">   -181.25411470 </i>
    <i name="XCdc">    -68.02898004 </i>
    <i name="pawpsdc">   1593.08798632 </i>
    <i name="pawaedc">  -1478.98214162 </i>
    <i name="eentropy">      0.00000000 </i>
    <i name="bandstr">    -19.58598815 </i>
    <i name="atom">    634.03677096 </i>
    <i name="e_fr_energy">    -22.91751171 </i>
    <i name="e_wo_entrp">    -22.91751171 </i>
    <i name="e_0_energy">    -22.91751171 </i>
   </energy>
  </scstep>
  <scstep>
   <time name="dav">    0.16    0.16</time>
   <time name="total">    0.17    0.17</time>
   <energy>
    <i name="alphaZ">     10.18863188 </i>
    <i name="ewald">   -512.37967635 </i>
    <i name="hartreedc">   -181.28863283 </i>
    <i name="XCdc">    -68.02630991 </i>
    <i name="pawpsdc">   1593.02167104 </i>
    <i name="pawaedc">  -1478.91570551 </i>
    <i name="eentropy">      0.00000000 </i>
    <i name="bandstr">    -19.55425647 </i>
    <i name="atom">    634.03677096 </i>
    <i name="e_fr_energy">    -22.91750719 </i>
    <i name="e_wo_entrp">    -22.91750719 </i>
    <i name="e_0_energy">    -22.91750719 </i>
   </energy>
  </scstep>
  <structure>
   <crystal>
    <varray name="basis" >
     <v>       1.79355967      -3.10653648       0.00000000 </v>
     <v>       1.79355967       3.10653648      -0.00000000 </v>
     <v>       0.00000000       0.00000000       5.77719137 </v>
    </varray>
    <i name="volume">     64.37823092 </i>
    <varray name="rec_basis" >
     <v>       0.27877522      -0.16095095      -0.00000000 </v>
     <v>       0.27877522       0.16095095      -0.00000000 </v>
     <v>       0.00000000       0.00000000       0.17309449 </v>
    </varray>
   </crystal>
   <varray name="positions" >
    <v>       0.33333333       0.66666667       0.99768764 </v>
    <v>       0.66666667       0.33333333       0.49768764 </v>
    <v>       0.33333333       0.66666667       0.37731236 </v>
    <v>       0.66666667       0.33333333       0.87731236 </v>
   </varray>
  </structure>
  <varray name="forces" >
   <v>       0.00000000      -0.00000000       0.00123618 </v>
   <v>       0.00000000       0.00000000       0.00123618 </v>
   <v>       0.00000000      -0.00000000      -0.00123618 </v>
   <v>      -0.00000000       0.00000000      -0.00123618 </v>
  </varray>
  <varray name="stress" >
   <v>       0.36095555      -0.00000000      -0.00000000 </v>
   <v>      -0.00000000       0.36095555      -0.00000000 </v>
   <v>       0.00000000       0.00000000      -0.06664868 </v>
  </varray>
  <energy>
   <i name="e_fr_energy">    -22.91750719 </i>
   <i name="e_wo_entrp">    -22.91750719 </i>
   <i name="e_0_energy">    -22.91750719 </i>
  </energy>
  <time name="totalsc">    1.19    1.23</time>
 </calculation>
 <calculation>
  <scstep>
   <time name="dav">    0.16    0.16</time>
   <time name="total">    0.18    0.18</time>
   <energy>
    <i name="alphaZ">     10.18807595 </i>
    <i name="ewald">   -512.37029290 </i>
    <i name="hartreedc">   -181.28080333 </i>
    <i name="XCdc">    -68.02741331 </i>
    <i name="pawpsdc">   1592.95869310 </i>
    <i name="pawaedc">  -1478.85256813 </i>
    <i name="eentropy">      0.00000000 </i>
    <i name="bandstr">    -19.56997007 </i>
    <i name="atom">    634.03677096 </i>
    <i name="e_fr_energy">    -22.91750773 </i>
    <i name="e_wo_entrp">    -22.91750773 </i>
    <i name="e_0_energy">    -22.91750773 </i>
   </energy>
  </scstep>
  <scstep>
   <time name="dav">    0.16    0.16</time>
   <time name="total">    0.17    0.17</time>
   <energy>
    <i name="alphaZ">     10.18807595 </i>
    <i name="ewald">   -512.37029290 </i>
    <i name="hartreedc">   -181.28665669 </i>
    <i name="XCdc">    -68.02705385 </i>
    <i name="pawpsdc">   1592.83824110 </i>
    <i name="pawaedc">  -1478.73197083 </i>
    <i name="eentropy">      0.00000000 </i>
    <i name="bandstr">    -19.56462111 </i>
    <i name="atom">    634.03677096 </i>
    <i name="e_fr_energy">    -22.91750738 </i>
    <i name="e_wo_entrp">    -22.91750738 </i>
    <i name="e_0_energy">    -22.91750738 </i>
   </energy>
  </scstep>
  <structure>
   <crystal>
    <varray name="basis" >
     <v>       1.79360404      -3.10661333       0.00000000 </v>
     <v>       1.79360404       3.10661333      -0.00000000 </v>
     <v>       0.00000000       0.00000000       5.77722077 </v>
[...]
       <r>   20.8213    0.0000 </r>
       <r>   20.8213    0.0000 </r>
       <r>   23.0278    0.0000 </r>
       <r>   23.0278    0.0000 </r>
      </set>
      <set comment="kpoint 53">
       <r>   -8.8332    1.0000 </r>
       <r>   -8.8332    1.0000 </r>
       <r>   -0.6404    1.0000 </r>
       <r>   -0.6404    1.0000 </r>
       <r>    1.9185    1.0000 </r>
       <r>    1.9185    1.0000 </r>
       <r>    2.4857    1.0000 </r>
       <r>    2.4857    1.0000 </r>
       <r>    7.9136    0.0000 </r>
       <r>    7.9136    0.0000 </r>
       <r>   10.1196    0.0000 </r>
       <r>   10.1196    0.0000 </r>
       <r>   11.5230    0.0000 </r>
       <r>   11.5230    0.0000 </r>
       <r>   13.8544    0.0000 </r>
       <r>   13.8544    0.0000 </r>
       <r>   16.6123    0.0000 </r>
       <r>   16.6123    0.0000 </r>
       <r>   18.4938    0.0000 </r>
       <r>   18.4938    0.0000 </r>
       <r>   21.5654    0.0000 </r>
       <r>   21.5654    0.0000 </r>
       <r>   22.8526    0.0000 </r>
       <r>   22.8526    0.0000 </r>
      </set>
      <set comment="kpoint 54">
       <r>   -8.5584    1.0000 </r>
       <r>   -8.5584    1.0000 </r>
       <r>   -1.0542    1.0000 </r>
       <r>   -1.0542    1.0000 </r>
       <r>    1.3768    1.0000 </r>
       <r>    1.3768    1.0000 </r>
       <r>    2.6138    1.0000 </r>
       <r>    2.6138    1.0000 </r>
       <r>    8.1790    0.0000 </r>
       <r>    8.1790    0.0000 </r>
       <r>   10.2010    0.0000 </r>
       <r>   10.2010    0.0000 </r>
       <r>   11.0550    0.0000 </r>
       <r>   11.0550    0.0000 </r>
       <r>   14.3052    0.0000 </r>
       <r>   14.3052    0.0000 </r>
       <r>   16.3387    0.0000 </r>
       <r>   16.3387    0.0000 </r>
       <r>   18.9606    0.0000 </r>
       <r>   18.9606    0.0000 </r>
       <r>   21.3612    0.0000 </r>
       <r>   21.3612    0.0000 </r>
       <r>   22.9560    0.0000 </r>
       <r>   22.9560    0.0000 </r>
      </set>
      <set comment="kpoint 55">
       <r>   -8.4436    1.0000 </r>
       <r>   -8.4436    1.0000 </r>
       <r>   -1.2235    1.0000 </r>
       <r>   -1.2235    1.0000 </r>
       <r>    1.1740    1.0000 </r>
       <r>    1.1740    1.0000 </r>
       <r>    2.6777    1.0000 </r>
       <r>    2.6777    1.0000 </r>
       <r>    8.2497    0.0000 </r>
       <r>    8.2497    0.0000 </r>
       <r>   10.3079    0.0000 </r>
       <r>   10.3079    0.0000 </r>
       <r>   10.7996    0.0000 </r>
       <r>   10.7996    0.0000 </r>
       <r>   14.5932    0.0000 </r>
       <r>   14.5932    0.0000 </r>
       <r>   16.2436    0.0000 </r>
       <r>   16.2436    0.0000 </r>
       <r>   19.0070    0.0000 </r>
       <r>   19.0070    0.0000 </r>
       <r>   21.2269    0.0000 </r>
       <r>   21.2269    0.0000 </r>
       <r>   23.1328    0.0000 </r>
       <r>   23.1328    0.0000 </r>
      </set>
      <set comment="kpoint 56">
       <r>   -8.4018    1.0000 </r>
       <r>   -8.4018    1.0000 </r>
       <r>   -1.1171    1.0000 </r>
       <r>   -1.1171    1.0000 </r>
       <r>    0.8073    1.0000 </r>
       <r>    0.8073    1.0000 </r>
       <r>    2.7164    1.0000 </r>
       <r>    2.7164    1.0000 </r>
       <r>    8.7521    0.0000 </r>
       <r>    8.7521    0.0000 </r>
       <r>   10.0389    0.0000 </r>
       <r>   10.0389    0.0000 </r>
       <r>   10.6025    0.0000 </r>
       <r>   10.6025    0.0000 </r>
       <r>   15.0492    0.0000 </r>
       <r>   15.0492    0.0000 </r>
       <r>   16.0408    0.0000 </r>
       <r>   16.0408    0.0000 </r>
       <r>   18.4965    0.0000 </r>
       <r>   18.4965    0.0000 </r>
       <r>   21.6258    0.0000 </r>
       <r>   21.6258    0.0000 </r>
       <r>   23.1863    0.0000 </r>
       <r>   23.1863    0.0000 </r>
      </set>
     </set>
    </set>
   </array>
  </eigenvalues>
  <separator name="orbital magnetization" >
   <v name="MAGDIPOLOUT">      0.00000000      0.00000000      0.00000000</v>
  </separator>
  <dos>
   <i name="efermi">      3.88963181 </i>
   <total>
    <array>
     <dimension dim="1">gridpoints</dimension>
     <dimension dim="2">spin</dimension>
     <field>energy</field>
     <field>total</field>
     <field>integrated</field>
     <set>
      <set comment="spin 1">
       <r>   -12.3646     0.0000     0.0000 </r>
       <r>   -12.2380     0.0000     0.0000 </r>
       <r>   -12.1114     0.0000     0.0000 </r>
       <r>   -11.9849     0.0000     0.0000 </r>
       <r>   -11.8583     0.0000     0.0000 </r>
       <r>   -11.7317     0.0000     0.0000 </r>
       <r>   -11.6052     0.0000     0.0000 </r>
       <r>   -11.4786     0.0000     0.0000 </r>
       <r>   -11.3520     0.0000     0.0000 </r>
       <r>   -11.2255     0.0000     0.0000 </r>
       <r>   -11.0989     0.0000     0.0000 </r>
       <r>   -10.9724     0.0000     0.0000 </r>
       <r>   -10.8458     0.0000     0.0000 </r>
       <r>   -10.7192     0.0000     0.0000 </r>
       <r>   -10.5927     0.0000     0.0000 </r>
       <r>   -10.4661     0.0000     0.0000 </r>
       <r>   -10.3395     0.0154     0.0001 </r>
       <r>   -10.2130     0.3054     0.0226 </r>
       <r>   -10.0864     0.4415     0.0680 </r>
       <r>    -9.9599     0.5670     0.1335 </r>
       <r>    -9.8333     0.6824     0.2121 </r>
       <r>    -9.7067     0.8149     0.3066 </r>
       <r>    -9.5802     0.9454     0.4181 </r>
       <r>    -9.4536     1.0834     0.5464 </r>
       <r>    -9.3270     1.2567     0.6942 </r>
       <r>    -9.2005     1.4713     0.8660 </r>
       <r>    -9.0739     1.7665     1.0698 </r>
       <r>    -8.9474     2.1890     1.3187 </r>
       <r>    -8.8208     3.4893     1.6405 </r>
       <r>    -8.6942     3.6048     2.0740 </r>
       <r>    -8.5677     3.6465     2.5250 </r>
       <r>    -8.4411     3.8802     3.0075 </r>
       <r>    -8.3145     4.4925     3.5050 </r>
       <r>    -8.1880     1.9314     4.0000 </r>
       <r>    -8.0614     0.0000     4.0000 </r>
       <r>    -7.9349     0.0000     4.0000 </r>
       <r>    -7.8083     0.0000     4.0000 </r>
       <r>    -7.6817     0.0000     4.0000 </r>
       <r>    -7.5552     0.0000     4.0000 </r>
       <r>    -7.4286     0.0000     4.0000 </r>
       <r>    -7.3020     0.0000     4.0000 </r>
       <r>    -7.1755     0.0000     4.0000 </r>
       <r>    -7.0489     0.0000     4.0000 </r>
       <r>    -6.9223     0.0000     4.0000 </r>
       <r>    -6.7958     0.0000     4.0000 </r>
       <r>    -6.6692     0.0000     4.0000 </r>
       <r>    -6.5427     0.0000     4.0000 </r>
       <r>    -6.4161     0.0000     4.0000 </r>
       <r>    -6.2895     0.0000     4.0000 </r>
       <r>    -6.1630     0.0000     4.0000 </r>
       <r>    -6.0364     0.0000     4.0000 </r>
       <r>    -5.9098     0.0000     4.0000 </r>
       <r>    -5.7833     0.0000     4.0000 </r>
       <r>    -5.6567     0.0000     4.0000 </r>
       <r>    -5.5302     0.0000     4.0000 </r>
       <r>    -5.4036     0.0000     4.0000 </r>
       <r>    -5.2770     0.0000     4.0000 </r>
       <r>    -5.1505     0.0000     4.0000 </r>
       <r>    -5.0239     0.0000     4.0000 </r>
       <r>    -4.8973     0.0000     4.0000 </r>
       <r>    -4.7708     0.0000     4.0000 </r>
       <r>    -4.6442     0.0000     4.0000 </r>
       <r>    -4.5177     0.0000     4.0000 </r>
       <r>    -4.3911     0.0000     4.0000 </r>
       <r>    -4.2645     0.0000     4.0000 </r>
       <r>    -4.1380     0.0000     4.0000 </r>
       <r>    -4.0114     0.0000     4.0000 </r>
       <r>    -3.8848     0.0000     4.0000 </r>
       <r>    -3.7583     0.0000     4.0000 </r>
       <r>    -3.6317     0.0000     4.0000 </r>
       <r>    -3.5052     0.0000     4.0000 </r>
       <r>    -3.3786     0.0000     4.0000 </r>
       <r>    -3.2520     0.0000     4.0000 </r>
       <r>    -3.1255     0.0000     4.0000 </r>
       <r>    -2.9989     0.0000     4.0000 </r>
       <r>    -2.8723     0.0000     4.0000 </r>
       <r>    -2.7458     0.0000     4.0000 </r>
       <r>    -2.6192     0.0000     4.0000 </r>
       <r>    -2.4926     0.0000     4.0000 </r>
       <r>    -2.3661     0.0000     4.0000 </r>
       <r>    -2.2395     0.0000     4.0000 </r>
       <r>    -2.1130     0.0000     4.0000 </r>
       <r>    -1.9864     0.0000     4.0000 </r>
       <r>    -1.8598     0.0000     4.0000 </r>
       <r>    -1.7333     0.0000     4.0000 </r>
       <r>    -1.6067     0.0213     4.0004 </r>
       <r>    -1.4801     0.2493     4.0121 </r>
       <r>    -1.3536     1.6416     4.1228 </r>
       <r>    -1.2270     2.4600     4.3910 </r>
       <r>    -1.1005     4.2186     4.7888 </r>
       <r>    -0.9739     4.7110     5.3037 </r>
       <r>    -0.8473     3.0447     5.8615 </r>
       <r>    -0.7208     2.0650     6.1565 </r>
       <r>    -0.5942     2.2894     6.4229 </r>
       <r>    -0.4676     2.1469     6.7103 </r>
       <r>    -0.3411     1.3335     6.9180 </r>
       <r>    -0.2145     1.1000     7.0716 </r>
       <r>    -0.0880     0.9027     7.1977 </r>
       <r>     0.0386     0.7578     7.3021 </r>
       <r>     0.1652     0.8931     7.4121 </r>
       <r>     0.2917     0.8330     7.5181 </r>
       <r>     0.4183     0.8430     7.6244 </r>
       <r>     0.5449     1.1254     7.7415 </r>
       <r>     0.6714     1.9938     7.9524 </r>
       <r>     0.7980     1.9588     8.2035 </r>
       <r>     0.9246     1.5275     8.4220 </r>
       <r>     1.0511     1.5342     8.6137 </r>
       <r>     1.1777     1.6993     8.8152 </r>
       <r>     1.3042     2.0625     9.0507 </r>
       <r>     1.4308     2.3917     9.3326 </r>
       <r>     1.5574     2.5969     9.6521 </r>
       <r>     1.6839     2.5979     9.9806 </r>
       <r>     1.8105     2.5201    10.3048 </r>
       <r>     1.9371     2.7447    10.6324 </r>
       <r>     2.0636     2.8069    10.9861 </r>
       <r>     2.1902     3.1365    11.3612 </r>
       <r>     2.3167     3.1174    11.7513 </r>
       <r>     2.4433     3.7092    12.1739 </r>
       <r>     2.5699     4.5528    12.7086 </r>
       <r>     2.6964     5.4896    13.3419 </r>
       <r>     2.8230     4.3261    13.9560 </r>
       <r>     2.9496     3.5446    14.4406 </r>
       <r>     3.0761     2.8691    14.8571 </r>
       <r>     3.2027     2.1516    15.1726 </r>
       <r>     3.3292     1.8497    15.4203 </r>
       <r>     3.4558     1.4727    15.6359 </r>
       <r>     3.5824     1.1743    15.8005 </r>
       <r>     3.7089     0.7562    15.9241 </r>
       <r>     3.8355     0.3052    15.9956 </r>
       <r>     3.9621     0.0002    16.0000 </r>
       <r>     4.0886     0.0017    16.0001 </r>
       <r>     4.2152     0.0046    16.0005 </r>
       <r>     4.3417     0.0089    16.0013 </r>
       <r>     4.4683     0.0145    16.0028 </r>
       <r>     4.5949     0.0215    16.0051 </r>
       <r>     4.7214     0.0327    16.0084 </r>
       <r>     4.8480     0.0560    16.0142 </r>
       <r>     4.9746     0.0738    16.0224 </r>
       <r>     5.1011     0.0903    16.0328 </r>
       <r>     5.2277     0.1096    16.0453 </r>
       <r>     5.3543     0.1324    16.0606 </r>
       <r>     5.4808     0.1571    16.0789 </r>
       <r>     5.6074     0.1843    16.1005 </r>
       <r>     5.7339     0.2148    16.1257 </r>
       <r>     5.8605     0.2565    16.1554 </r>
       <r>     5.9871     0.2968    16.1904 </r>
       <r>     6.1136     0.3402    16.2306 </r>
       <r>     6.2402     0.3895    16.2767 </r>
       <r>     6.3668     0.4519    16.3297 </r>
       <r>     6.4933     0.5412    16.3922 </r>
       <r>     6.6199     0.6584    16.4680 </r>
       <r>     6.7464     0.7849    16.5593 </r>
       <r>     6.8730     0.9531    16.6683 </r>
       <r>     6.9996     1.2733    16.8083 </r>
       <r>     7.1261     1.5265    16.9846 </r>
       <r>     7.2527     1.6432    17.1863 </r>
       <r>     7.3793     1.5865    17.3911 </r>
       <r>     7.5058     1.5110    17.5874 </r>
       <r>     7.6324     1.4578    17.7748 </r>
       <r>     7.7589     1.4249    17.9572 </r>
       <r>     7.8855     1.4407    18.1376 </r>
       <r>     8.0121     1.4671    18.3224 </r>
       <r>     8.1386     1.4875    18.5092 </r>
       <r>     8.2652     1.5795    18.7021 </r>
       <r>     8.3918     1.6514    18.9067 </r>
       <r>     8.5183     1.6561    19.1180 </r>
       <r>     8.6449     1.4889    19.3187 </r>
       <r>     8.7714     1.4266    19.5055 </r>
       <r>     8.8980     1.2556    19.6744 </r>
       <r>     9.0246     1.7390    19.8636 </r>
       <r>     9.1511     0.6068    19.9949 </r>
       <r>     9.2777     0.4998    20.0536 </r>
       <r>     9.4043     0.8596    20.1361 </r>
       <r>     9.5308     1.0965    20.2603 </r>
       <r>     9.6574     1.7897    20.4365 </r>
       <r>     9.7840     2.6085    20.7405 </r>
       <r>     9.9105     2.6611    21.0969 </r>
       <r>    10.0371     3.1684    21.4239 </r>
       <r>    10.1636     7.3046    22.0587 </r>
       <r>    10.2902     4.1909    22.9593 </r>
       <r>    10.4168     2.1175    23.2804 </r>
       <r>    10.5433     1.3597    23.5045 </r>
       <r>    10.6699     0.9887    23.6376 </r>
       <r>    10.7965     0.9025    23.7511 </r>
       <r>    10.9230     0.9556    23.8687 </r>
       <r>    11.0496     0.9885    23.9922 </r>
       <r>    11.1761     1.0168    24.1172 </r>
       <r>    11.3027     1.1511    24.2542 </r>
       <r>    11.4293     1.3168    24.4099 </r>
       <r>    11.5558     1.7513    24.5977 </r>
       <r>    11.6824     2.6134    24.8685 </r>
       <r>    11.8090     3.1757    25.2402 </r>
       <r>    11.9355     4.2221    25.6994 </r>
       <r>    12.0621     3.0227    26.2057 </r>
       <r>    12.1886     1.9539    26.4826 </r>
       <r>    12.3152     1.7192    26.7168 </r>
       <r>    12.4418     1.6346    26.9280 </r>
       <r>    12.5683     1.5612    27.1307 </r>
       <r>    12.6949     1.6465    27.3284 </r>
       <r>    12.8215     2.0723    27.5575 </r>
       <r>    12.9480     2.0580    27.8338 </r>
       <r>    13.0746     2.1812    28.0788 </r>
       <r>    13.2011     3.3346    28.4460 </r>
       <r>    13.3277     2.5663    28.8152 </r>
       <r>    13.4543     2.6999    29.1336 </r>
       <r>    13.5808     2.1265    29.4467 </r>
       <r>    13.7074     1.7924    29.6949 </r>
       <r>    13.8340     1.5800    29.9051 </r>
       <r>    13.9605     1.5826    30.1044 </r>
       <r>    14.0871     1.5840    30.3060 </r>
       <r>    14.2137     1.6106    30.5067 </r>
       <r>    14.3402     1.7305    30.7176 </r>
       <r>    14.4668     1.9693    30.9484 </r>
       <r>    14.5933     2.2199    31.2190 </r>
       <r>    14.7199     2.7714    31.5298 </r>
       <r>    14.8465     1.4387    31.7912 </r>
       <r>    14.9730     1.2571    31.9560 </r>
       <r>    15.0996     1.3186    32.1183 </r>
       <r>    15.2262     1.4681    32.2931 </r>
       <r>    15.3527     2.2209    32.5223 </r>
       <r>    15.4793     2.8381    32.8621 </r>
       <r>    15.6058     1.3599    33.1315 </r>
       <r>    15.7324     1.1977    33.2931 </r>
       <r>    15.8590     1.0599    33.4358 </r>
       <r>    15.9855     1.0612    33.5685 </r>
       <r>    16.1121     1.0981    33.7059 </r>
       <r>    16.2387     1.1033    33.8458 </r>
       <r>    16.3652     1.1507    33.9871 </r>
       <r>    16.4918     1.2470    34.1389 </r>
       <r>    16.6183     1.3616    34.3053 </r>
       <r>    16.7449     1.6447    34.4937 </r>
       <r>    16.8715     1.8265    34.7133 </r>
       <r>    16.9980     1.7075    34.9393 </r>
       <r>    17.1246     1.4488    35.1362 </r>
       <r>    17.2512     1.4204    35.3197 </r>
       <r>    17.3777     1.2023    35.4826 </r>
       <r>    17.5043     1.0521    35.6232 </r>
       <r>    17.6309     1.0111    35.7523 </r>
       <r>    17.7574     1.0218    35.8840 </r>
       <r>    17.8840     1.1050    36.0178 </r>
       <r>    18.0105     1.2995    36.1650 </r>
       <r>    18.1371     1.1427    36.3107 </r>
       <r>    18.2637     1.3197    36.4639 </r>
       <r>    18.3902     1.8700    36.6768 </r>
       <r>    18.5168     2.2059    36.9374 </r>
       <r>    18.6434     2.2815    37.2148 </r>
       <r>    18.7699     2.1985    37.5050 </r>
       <r>    18.8965     2.0509    37.7689 </r>
       <r>    19.0230     2.0141    38.0271 </r>
       <r>    19.1496     1.9916    38.2797 </r>
       <r>    19.2762     2.0610    38.5384 </r>
       <r>    19.4027     2.2675    38.8121 </r>
       <r>    19.5293     2.3548    39.1076 </r>
       <r>    19.6559     2.3591    39.4056 </r>
       <r>    19.7824     2.4281    39.7061 </r>
       <r>    19.9090     2.2041    40.0045 </r>
       <r>    20.0355     1.7519    40.2613 </r>
       <r>    20.1621     1.3909    40.4560 </r>
       <r>    20.2887     1.4310    40.6291 </r>
       <r>    20.4152     1.9489    40.8363 </r>
       <r>    20.5418     2.7609    41.1305 </r>
       <r>    20.6684     3.0107    41.5062 </r>
       <r>    20.7949     2.6528    41.8689 </r>
       <r>    20.9215     2.3456    42.1750 </r>
       <r>    21.0480     2.3667    42.4772 </r>
       <r>    21.1746     2.9151    42.8091 </r>
       <r>    21.3012     3.2331    43.1907 </r>
       <r>    21.4277     3.4519    43.6231 </r>
       <r>    21.5543     2.6471    44.0277 </r>
       <r>    21.6809     1.8060    44.3040 </r>
       <r>    21.8074     1.1236    44.4689 </r>
       <r>    21.9340     1.1041    44.6078 </r>
       <r>    22.0606     1.1871    44.7520 </r>
       <r>    22.1871     1.3788    44.9136 </r>
       <r>    22.3137     1.7228    45.1066 </r>
       <r>    22.4402     1.6785    45.3111 </r>
       <r>    22.5668     2.3634    45.5646 </r>
       <r>    22.6934     3.1479    45.9284 </r>
       <r>    22.8199     3.1619    46.3458 </r>
       <r>    22.9465     3.6790    46.7047 </r>
       <r>    23.0731     4.5438    47.2465 </r>
       <r>    23.1996     3.5175    47.7722 </r>
       <r>    23.3262     0.6814    47.9550 </r>
       <r>    23.4527     0.0658    47.9971 </r>
       <r>    23.5793     0.0015    48.0000 </r>
       <r>    23.7059     0.0000    48.0000 </r>
       <r>    23.8324     0.0000    48.0000 </r>
       <r>    23.9590     0.0000    48.0000 </r>
       <r>    24.0856     0.0000    48.0000 </r>
       <r>    24.2121     0.0000    48.0000 </r>
       <r>    24.3387     0.0000    48.0000 </r>
       <r>    24.4652     0.0000    48.0000 </r>
       <r>    24.5918     0.0000    48.0000 </r>
       <r>    24.7184     0.0000    48.0000 </r>
       <r>    24.8449     0.0000    48.0000 </r>
       <r>    24.9715     0.0000    48.0000 </r>
       <r>    25.0981     0.0000    48.0000 </r>
       <r>    25.2246     0.0000    48.0000 </r>
       <r>    25.3512     0.0000    48.0000 </r>
       <r>    25.4777     0.0000    48.0000 </r>
       <r>    25.6043     0.0000    48.0000 </r>
      </set>
     </set>
    </array>
   </total>
  </dos>
 </calculation>
 <structure name="finalpos" >
  <crystal>
   <varray name="basis" >
    <v>       1.79362246      -3.10664522       0.00000000 </v>
    <v>       1.79362246       3.10664522      -0.00000000 </v>
    <v>       0.00000000       0.00000000       5.77723297 </v>
   </varray>
   <i name="volume">     64.38320168 </i>
   <varray name="rec_basis" >
    <v>       0.27876547      -0.16094532      -0.00000000 </v>
    <v>       0.27876547       0.16094532      -0.00000000 </v>
    <v>       0.00000000       0.00000000       0.17309324 </v>
   </varray>
  </crystal>
  <varray name="positions" >
   <v>       0.33333333       0.66666667       0.99769130 </v>
   <v>       0.66666667       0.33333333       0.49769130 </v>
   <v>       0.33333333       0.66666667       0.37730870 </v>
   <v>       0.66666667       0.33333333       0.87730870 </v>
  </varray>
 </structure>
</modeling>
